PROCAR lm decomposed
# of k-points:    2         # of bands:  216         # of ions:   31

 k-point     1 :    0.25000000 0.25000000 0.25000000     weight = 1.00000000

band     1 # energy  -11.19251291 # occ.  1.00000000

ion      s     py     pz     px    dxy    dyz    dz2    dxz  x2-y2    tot
    1  0.021  0.000  0.001  0.001  0.002  0.000  0.004  0.001  0.000  0.030
    2  0.008  0.000  0.000  0.000  0.001  0.000  0.001  0.000  0.000  0.011
    3  0.004  0.000  0.000  0.000  0.000  0.000  0.000  0.000  0.001  0.006
    4  0.012  0.000  0.000  0.000  0.001  0.000  0.002  0.001  0.000  0.017
    5  0.023  0.000  0.001  0.001  0.002  0.000  0.004  0.001  0.000  0.031
    6  0.007  0.000  0.000  0.000  0.001  0.000  0.001  0.000  0.001  0.011
    7  0.013  0.000  0.000  0.000  0.000  0.000  0.002  0.000  0.000  0.017
    8  0.007  0.000  0.000  0.000  0.001  0.000  0.001  0.000  0.001  0.010
    9  0.012  0.000  0.000  0.000  0.001  0.000  0.002  0.000  0.001  0.018
   10  0.003  0.000  0.000  0.000  0.000  0.000  0.001  0.000  0.000  0.005
   11  0.009  0.000  0.000  0.000  0.001  0.000  0.001  0.000  0.001  0.014
   12  0.021  0.000  0.001  0.001  0.002  0.000  0.004  0.001  0.000  0.030
   13  0.013  0.000  0.000  0.000  0.000  0.000  0.002  0.000  0.001  0.018
   14  0.003  0.000  0.000  0.000  0.000  0.000  0.000  0.000  0.000  0.005
   15  0.021  0.000  0.001  0.001  0.002  0.000  0.004  0.001  0.000  0.030
   16  0.004  0.000  0.000  0.000  0.000  0.000  0.000  0.000  0.000  0.004
   17  0.056  0.000  0.000  0.000  0.000  0.000  0.000  0.000  0.000  0.056
   18  0.019  0.000  0.000  0.000  0.000  0.000  0.000  0.000  0.000  0.019
   19  0.009  0.000  0.000  0.000  0.000  0.000  0.000  0.000  0.000  0.009
   20  0.030  0.000  0.000  0.000  0.000  0.000  0.000  0.000  0.000  0.030
   21  0.057  0.000  0.000  0.000  0.000  0.000  0.000  0.000  0.000  0.057
   22  0.018  0.000  0.000  0.000  0.000  0.000  0.000  0.000  0.000  0.018
   23  0.030  0.000  0.000  0.000  0.000  0.000  0.000  0.000  0.000  0.030
   24  0.012  0.000  0.000  0.000  0.000  0.000  0.000  0.000  0.000  0.013
   25  0.029  0.000  0.000  0.000  0.000  0.000  0.000  0.000  0.000  0.029
   26  0.005  0.000  0.000  0.000  0.000  0.000  0.000  0.000  0.000  0.005
   27  0.023  0.000  0.000  0.000  0.000  0.000  0.000  0.000  0.000  0.023
   28  0.058  0.000  0.000  0.000  0.000  0.000  0.000  0.000  0.000  0.058
   29  0.031  0.000  0.000  0.000  0.000  0.000  0.000  0.000  0.000  0.031
   30  0.004  0.000  0.000  0.000  0.000  0.000  0.000  0.000  0.000  0.004
   31  0.059  0.000  0.000  0.000  0.000  0.000  0.000  0.000  0.000  0.059
tot    0.619  0.003  0.007  0.005  0.016  0.004  0.029  0.008  0.008  0.698

band     2 # energy  -10.91028750 # occ.  1.00000000

ion      s     py     pz     px    dxy    dyz    dz2    dxz  x2-y2    tot
    1  0.003  0.001  0.000  0.000  0.001  0.004  0.001  0.000  0.008  0.019
    2  0.011  0.000  0.001  0.000  0.001  0.001  0.003  0.001  0.001  0.019
    3  0.013  0.001  0.001  0.000  0.000  0.001  0.003  0.000  0.004  0.023
    4  0.012  0.000  0.000  0.000  0.003  0.001  0.002  0.001  0.004  0.024
    5  0.002  0.002  0.000  0.000  0.001  0.004  0.001  0.000  0.008  0.018
    6  0.013  0.000  0.001  0.000  0.002  0.000  0.004  0.000  0.000  0.021
    7  0.009  0.000  0.000  0.001  0.004  0.001  0.003  0.002  0.004  0.023
    8  0.008  0.000  0.000  0.000  0.002  0.000  0.003  0.001  0.001  0.016
    9  0.011  0.001  0.000  0.000  0.003  0.002  0.003  0.001  0.004  0.026
   10  0.009  0.000  0.000  0.000  0.001  0.001  0.002  0.000  0.001  0.016
   11  0.018  0.000  0.001  0.000  0.001  0.001  0.005  0.001  0.002  0.029
   12  0.003  0.002  0.000  0.000  0.001  0.004  0.001  0.000  0.009  0.020
   13  0.011  0.001  0.000  0.000  0.002  0.002  0.003  0.001  0.004  0.024
   14  0.011  0.000  0.000  0.000  0.002  0.001  0.001  0.001  0.001  0.017
   15  0.002  0.001  0.000  0.000  0.001  0.004  0.001  0.000  0.008  0.017
   16  0.011  0.000  0.000  0.000  0.000  0.000  0.000  0.000  0.000  0.011
   17  0.011  0.000  0.000  0.000  0.000  0.000  0.000  0.000  0.000  0.011
   18  0.037  0.000  0.000  0.000  0.000  0.000  0.000  0.000  0.000  0.037
   19  0.042  0.000  0.000  0.000  0.000  0.000  0.000  0.000  0.000  0.042
   20  0.043  0.000  0.000  0.000  0.000  0.000  0.000  0.000  0.000  0.043
   21  0.008  0.000  0.000  0.000  0.000  0.000  0.000  0.000  0.000  0.008
   22  0.045  0.000  0.000  0.000  0.000  0.000  0.000  0.000  0.000  0.045
   23  0.033  0.000  0.000  0.000  0.000  0.000  0.000  0.000  0.000  0.033
   24  0.014  0.000  0.000  0.000  0.000  0.000  0.000  0.000  0.000  0.014
   25  0.035  0.000  0.000  0.000  0.000  0.000  0.000  0.000  0.000  0.035
   26  0.014  0.000  0.000  0.000  0.000  0.000  0.000  0.000  0.000  0.015
   27  0.059  0.000  0.000  0.000  0.000  0.000  0.000  0.000  0.000  0.059
   28  0.014  0.000  0.000  0.000  0.000  0.000  0.000  0.000  0.000  0.014
   29  0.035  0.000  0.000  0.000  0.000  0.000  0.000  0.000  0.000  0.035
   30  0.019  0.000  0.000  0.000  0.000  0.000  0.000  0.000  0.000  0.019
   31  0.008  0.000  0.000  0.000  0.000  0.000  0.000  0.000  0.000  0.008
tot    0.562  0.011  0.006  0.005  0.023  0.028  0.034  0.010  0.060  0.739

band     3 # energy  -10.75489699 # occ.  1.00000000

ion      s     py     pz     px    dxy    dyz    dz2    dxz  x2-y2    tot
    1  0.010  0.000  0.001  0.003  0.025  0.000  0.016  0.012  0.001  0.068
    2  0.003  0.000  0.000  0.001  0.005  0.000  0.001  0.002  0.000  0.013
    3  0.001  0.000  0.000  0.000  0.000  0.000  0.000  0.000  0.001  0.002
    4  0.004  0.001  0.000  0.000  0.001  0.002  0.002  0.001  0.006  0.018
    5  0.010  0.000  0.001  0.003  0.023  0.001  0.005  0.012  0.002  0.057
    6  0.001  0.000  0.000  0.001  0.008  0.000  0.000  0.003  0.000  0.013
    7  0.007  0.001  0.000  0.000  0.001  0.002  0.002  0.001  0.006  0.020
    8  0.001  0.000  0.000  0.001  0.005  0.000  0.000  0.002  0.000  0.011
    9  0.006  0.002  0.000  0.000  0.002  0.006  0.001  0.001  0.015  0.033
   10  0.001  0.000  0.000  0.000  0.000  0.000  0.000  0.000  0.001  0.003
   11  0.001  0.000  0.000  0.001  0.010  0.000  0.001  0.004  0.000  0.018
   12  0.009  0.000  0.001  0.004  0.030  0.000  0.006  0.014  0.000  0.064
   13  0.006  0.001  0.000  0.000  0.001  0.002  0.004  0.001  0.005  0.020
   14  0.000  0.000  0.000  0.000  0.000  0.000  0.000  0.000  0.000  0.001
   15  0.011  0.000  0.001  0.004  0.029  0.001  0.013  0.013  0.001  0.073
   16  0.001  0.000  0.000  0.000  0.000  0.000  0.000  0.000  0.000  0.001
   17  0.095  0.000  0.000  0.000  0.000  0.000  0.000  0.000  0.000  0.095
   18  0.011  0.000  0.000  0.000  0.000  0.000  0.000  0.000  0.000  0.011
   19  0.001  0.000  0.000  0.000  0.000  0.000  0.000  0.000  0.000  0.001
   20  0.014  0.000  0.000  0.000  0.000  0.000  0.000  0.000  0.000  0.014
   21  0.048  0.000  0.000  0.000  0.000  0.000  0.000  0.000  0.000  0.048
   22  0.002  0.000  0.000  0.000  0.000  0.000  0.000  0.000  0.000  0.002
   23  0.031  0.000  0.000  0.000  0.000  0.000  0.000  0.000  0.000  0.031
   24  0.002  0.000  0.000  0.000  0.000  0.000  0.000  0.000  0.000  0.002
   25  0.016  0.000  0.000  0.000  0.000  0.000  0.000  0.000  0.000  0.016
   26  0.001  0.000  0.000  0.000  0.000  0.000  0.000  0.000  0.000  0.001
   27  0.008  0.000  0.000  0.000  0.000  0.000  0.000  0.000  0.000  0.008
   28  0.055  0.000  0.000  0.000  0.000  0.000  0.000  0.000  0.000  0.055
   29  0.031  0.000  0.000  0.000  0.000  0.000  0.000  0.000  0.000  0.031
   30  0.001  0.000  0.000  0.000  0.000  0.000  0.000  0.000  0.000  0.001
   31  0.067  0.000  0.000  0.000  0.000  0.000  0.000  0.000  0.000  0.067
tot    0.453  0.005  0.005  0.020  0.141  0.016  0.051  0.068  0.038  0.797

band     4 # energy  -10.70223488 # occ.  1.00000000

ion      s     py     pz     px    dxy    dyz    dz2    dxz  x2-y2    tot
    1  0.003  0.002  0.000  0.001  0.005  0.010  0.001  0.002  0.025  0.049
    2  0.006  0.000  0.000  0.000  0.004  0.001  0.003  0.001  0.001  0.016
    3  0.005  0.001  0.000  0.000  0.000  0.002  0.004  0.000  0.004  0.017
    4  0.002  0.002  0.000  0.001  0.005  0.007  0.004  0.003  0.016  0.039
    5  0.009  0.001  0.000  0.000  0.003  0.006  0.004  0.001  0.014  0.039
    6  0.004  0.000  0.000  0.000  0.001  0.001  0.002  0.000  0.003  0.012
    7  0.004  0.001  0.001  0.000  0.002  0.005  0.007  0.000  0.013  0.033
    8  0.004  0.000  0.000  0.000  0.001  0.000  0.000  0.000  0.002  0.009
    9  0.006  0.001  0.000  0.000  0.001  0.004  0.002  0.001  0.010  0.026
   10  0.005  0.001  0.000  0.000  0.001  0.001  0.002  0.000  0.002  0.012
   11  0.010  0.000  0.000  0.000  0.002  0.002  0.003  0.001  0.004  0.022
   12  0.003  0.001  0.001  0.001  0.006  0.006  0.017  0.003  0.014  0.052
   13  0.003  0.002  0.000  0.000  0.003  0.009  0.000  0.002  0.019  0.039
   14  0.003  0.001  0.000  0.000  0.002  0.002  0.000  0.001  0.003  0.011
   15  0.001  0.002  0.001  0.000  0.003  0.009  0.011  0.001  0.020  0.049
   16  0.004  0.000  0.000  0.000  0.000  0.000  0.000  0.000  0.000  0.004
   17  0.013  0.000  0.000  0.000  0.000  0.000  0.000  0.000  0.000  0.014
   18  0.033  0.000  0.000  0.000  0.000  0.000  0.000  0.000  0.000  0.033
   19  0.027  0.000  0.000  0.000  0.000  0.000  0.000  0.000  0.000  0.027
   20  0.015  0.000  0.000  0.000  0.000  0.000  0.000  0.000  0.000  0.015
   21  0.052  0.000  0.000  0.000  0.000  0.000  0.000  0.000  0.000  0.052
   22  0.024  0.000  0.000  0.000  0.000  0.000  0.000  0.000  0.000  0.024
   23  0.027  0.000  0.000  0.000  0.000  0.000  0.000  0.000  0.000  0.027
   24  0.008  0.000  0.000  0.000  0.000  0.000  0.000  0.000  0.000  0.008
   25  0.027  0.000  0.000  0.000  0.000  0.000  0.000  0.000  0.000  0.027
   26  0.009  0.000  0.000  0.000  0.000  0.000  0.000  0.000  0.000  0.009
   27  0.044  0.000  0.000  0.000  0.000  0.000  0.000  0.000  0.000  0.044
   28  0.056  0.000  0.000  0.000  0.000  0.000  0.000  0.000  0.000  0.056
   29  0.007  0.000  0.000  0.000  0.000  0.000  0.000  0.000  0.000  0.007
   30  0.004  0.000  0.000  0.000  0.000  0.000  0.000  0.000  0.000  0.004
   31  0.028  0.000  0.000  0.000  0.000  0.000  0.000  0.000  0.000  0.028
tot    0.446  0.018  0.006  0.005  0.038  0.065  0.060  0.016  0.149  0.804

band     5 # energy  -10.67782378 # occ.  1.00000000

ion      s     py     pz     px    dxy    dyz    dz2    dxz  x2-y2    tot
    1  0.007  0.000  0.004  0.000  0.002  0.001  0.058  0.001  0.002  0.075
    2  0.003  0.000  0.000  0.000  0.002  0.001  0.003  0.001  0.001  0.012
    3  0.001  0.000  0.000  0.000  0.000  0.000  0.001  0.000  0.001  0.002
    4  0.003  0.000  0.001  0.000  0.000  0.002  0.012  0.000  0.002  0.020
    5  0.003  0.000  0.004  0.001  0.006  0.001  0.057  0.004  0.002  0.078
    6  0.003  0.000  0.000  0.000  0.001  0.001  0.004  0.001  0.002  0.012
    7  0.002  0.001  0.001  0.000  0.001  0.003  0.012  0.000  0.005  0.025
    8  0.002  0.000  0.000  0.000  0.001  0.001  0.004  0.001  0.001  0.009
    9  0.001  0.001  0.002  0.000  0.000  0.004  0.023  0.000  0.007  0.038
   10  0.000  0.000  0.000  0.000  0.000  0.000  0.001  0.000  0.000  0.002
   11  0.001  0.000  0.001  0.000  0.001  0.001  0.009  0.000  0.001  0.015
   12  0.008  0.000  0.003  0.001  0.004  0.001  0.049  0.002  0.003  0.072
   13  0.002  0.001  0.001  0.000  0.000  0.005  0.017  0.000  0.010  0.036
   14  0.000  0.000  0.000  0.000  0.000  0.000  0.001  0.000  0.000  0.001
   15  0.009  0.000  0.003  0.001  0.007  0.001  0.047  0.004  0.003  0.074
   16  0.001  0.000  0.000  0.000  0.000  0.000  0.000  0.000  0.000  0.001
   17  0.057  0.000  0.000  0.000  0.000  0.000  0.000  0.000  0.000  0.057
   18  0.003  0.000  0.000  0.000  0.000  0.000  0.000  0.000  0.000  0.003
   19  0.002  0.000  0.000  0.000  0.000  0.000  0.000  0.000  0.000  0.002
   20  0.019  0.000  0.000  0.000  0.000  0.000  0.000  0.000  0.000  0.019
   21  0.082  0.000  0.000  0.000  0.000  0.000  0.000  0.000  0.000  0.082
   22  0.002  0.000  0.000  0.000  0.000  0.000  0.000  0.000  0.000  0.002
   23  0.016  0.000  0.000  0.000  0.000  0.000  0.000  0.000  0.000  0.016
   24  0.002  0.000  0.000  0.000  0.000  0.000  0.000  0.000  0.000  0.002
   25  0.034  0.000  0.000  0.000  0.000  0.000  0.000  0.000  0.000  0.034
   26  0.001  0.000  0.000  0.000  0.000  0.000  0.000  0.000  0.000  0.001
   27  0.007  0.000  0.000  0.000  0.000  0.000  0.000  0.000  0.000  0.007
   28  0.048  0.000  0.000  0.000  0.000  0.000  0.000  0.000  0.000  0.048
   29  0.017  0.000  0.000  0.000  0.000  0.000  0.000  0.000  0.000  0.017
   30  0.001  0.000  0.000  0.000  0.000  0.000  0.000  0.000  0.000  0.001
   31  0.065  0.000  0.000  0.000  0.000  0.000  0.000  0.000  0.000  0.065
tot    0.399  0.005  0.021  0.004  0.027  0.021  0.296  0.015  0.039  0.827

band     6 # energy  -10.63772977 # occ.  1.00000000

ion      s     py     pz     px    dxy    dyz    dz2    dxz  x2-y2    tot
    1  0.001  0.001  0.002  0.003  0.030  0.003  0.024  0.014  0.007  0.084
    2  0.001  0.000  0.000  0.001  0.005  0.000  0.001  0.002  0.000  0.011
    3  0.001  0.000  0.000  0.000  0.000  0.001  0.000  0.000  0.001  0.004
    4  0.006  0.000  0.001  0.000  0.002  0.001  0.009  0.002  0.003  0.024
    5  0.001  0.001  0.001  0.003  0.025  0.005  0.010  0.013  0.010  0.068
    6  0.002  0.000  0.000  0.001  0.004  0.000  0.002  0.002  0.000  0.012
    7  0.005  0.001  0.000  0.001  0.003  0.003  0.001  0.003  0.008  0.024
    8  0.004  0.000  0.000  0.001  0.004  0.000  0.001  0.002  0.000  0.013
    9  0.005  0.001  0.000  0.001  0.007  0.004  0.002  0.004  0.010  0.034
   10  0.000  0.000  0.000  0.000  0.001  0.000  0.000  0.000  0.001  0.003
   11  0.001  0.000  0.000  0.002  0.014  0.000  0.003  0.007  0.001  0.027
   12  0.001  0.002  0.001  0.002  0.022  0.010  0.016  0.010  0.020  0.084
   13  0.005  0.000  0.000  0.001  0.005  0.001  0.002  0.003  0.003  0.020
   14  0.001  0.000  0.000  0.000  0.000  0.001  0.001  0.000  0.001  0.005
   15  0.002  0.001  0.001  0.002  0.028  0.004  0.019  0.013  0.008  0.079
   16  0.003  0.000  0.000  0.000  0.000  0.000  0.000  0.000  0.000  0.003
   17  0.067  0.000  0.000  0.000  0.000  0.000  0.000  0.000  0.000  0.067
   18  0.008  0.000  0.000  0.000  0.000  0.000  0.000  0.000  0.000  0.008
   19  0.001  0.000  0.000  0.000  0.000  0.000  0.000  0.000  0.000  0.001
   20  0.040  0.000  0.000  0.000  0.000  0.000  0.000  0.000  0.000  0.040
   21  0.032  0.000  0.000  0.000  0.000  0.000  0.000  0.000  0.000  0.032
   22  0.020  0.000  0.000  0.000  0.000  0.000  0.000  0.000  0.000  0.020
   23  0.018  0.000  0.000  0.000  0.000  0.000  0.000  0.000  0.000  0.018
   24  0.006  0.000  0.000  0.000  0.000  0.000  0.000  0.000  0.000  0.006
   25  0.013  0.000  0.000  0.000  0.000  0.000  0.000  0.000  0.000  0.013
   26  0.001  0.000  0.000  0.000  0.000  0.000  0.000  0.000  0.000  0.001
   27  0.011  0.000  0.000  0.000  0.000  0.000  0.000  0.000  0.000  0.011
   28  0.047  0.000  0.000  0.000  0.000  0.000  0.000  0.000  0.000  0.047
   29  0.016  0.000  0.000  0.000  0.000  0.000  0.000  0.000  0.000  0.016
   30  0.001  0.000  0.000  0.000  0.000  0.000  0.000  0.000  0.000  0.001
   31  0.061  0.000  0.000  0.000  0.000  0.000  0.000  0.000  0.000  0.061
tot    0.380  0.008  0.007  0.016  0.151  0.035  0.091  0.075  0.074  0.837

band     7 # energy  -10.56916285 # occ.  1.00000000

ion      s     py     pz     px    dxy    dyz    dz2    dxz  x2-y2    tot
    1  0.001  0.001  0.000  0.001  0.010  0.007  0.008  0.005  0.015  0.050
    2  0.002  0.001  0.000  0.001  0.005  0.003  0.004  0.003  0.005  0.023
    3  0.007  0.000  0.001  0.000  0.001  0.000  0.005  0.000  0.003  0.017
    4  0.001  0.001  0.002  0.001  0.006  0.003  0.023  0.003  0.006  0.045
    5  0.001  0.000  0.001  0.001  0.012  0.000  0.010  0.006  0.001  0.031
    6  0.003  0.001  0.000  0.000  0.002  0.002  0.004  0.001  0.004  0.017
    7  0.001  0.001  0.001  0.001  0.006  0.002  0.013  0.004  0.005  0.033
    8  0.007  0.001  0.000  0.000  0.000  0.002  0.004  0.000  0.003  0.017
    9  0.000  0.001  0.001  0.001  0.009  0.003  0.018  0.004  0.006  0.044
   10  0.004  0.000  0.000  0.000  0.003  0.001  0.000  0.001  0.002  0.011
   11  0.001  0.002  0.001  0.001  0.011  0.010  0.015  0.005  0.020  0.066
   12  0.000  0.001  0.001  0.001  0.012  0.007  0.021  0.006  0.014  0.064
   13  0.001  0.001  0.000  0.001  0.007  0.003  0.004  0.004  0.005  0.025
   14  0.002  0.000  0.000  0.001  0.004  0.001  0.001  0.001  0.001  0.011
   15  0.000  0.002  0.000  0.000  0.004  0.011  0.007  0.002  0.020  0.047
   16  0.002  0.000  0.000  0.000  0.000  0.000  0.000  0.000  0.000  0.002
   17  0.018  0.000  0.000  0.000  0.000  0.000  0.000  0.000  0.000  0.018
   18  0.024  0.000  0.000  0.000  0.000  0.000  0.000  0.000  0.000  0.024
   19  0.029  0.000  0.000  0.000  0.000  0.000  0.000  0.000  0.000  0.029
   20  0.052  0.000  0.000  0.000  0.000  0.000  0.000  0.000  0.000  0.052
   21  0.022  0.000  0.000  0.000  0.000  0.000  0.000  0.000  0.000  0.022
   22  0.010  0.000  0.000  0.000  0.000  0.000  0.000  0.000  0.000  0.010
   23  0.038  0.000  0.000  0.000  0.000  0.000  0.000  0.000  0.000  0.038
   24  0.001  0.000  0.000  0.000  0.000  0.000  0.000  0.000  0.000  0.001
   25  0.044  0.000  0.000  0.000  0.000  0.000  0.000  0.000  0.000  0.044
   26  0.006  0.000  0.000  0.000  0.000  0.000  0.000  0.000  0.000  0.006
   27  0.037  0.000  0.000  0.000  0.000  0.000  0.000  0.000  0.000  0.037
   28  0.034  0.000  0.000  0.000  0.000  0.000  0.000  0.000  0.000  0.034
   29  0.004  0.000  0.000  0.000  0.000  0.000  0.000  0.000  0.000  0.004
   30  0.009  0.000  0.000  0.000  0.000  0.000  0.000  0.000  0.000  0.009
   31  0.012  0.000  0.000  0.000  0.000  0.000  0.000  0.000  0.000  0.012
tot    0.372  0.011  0.010  0.011  0.092  0.054  0.137  0.046  0.110  0.843

band     8 # energy  -10.54831707 # occ.  1.00000000

ion      s     py     pz     px    dxy    dyz    dz2    dxz  x2-y2    tot
    1  0.001  0.001  0.001  0.001  0.007  0.008  0.013  0.005  0.017  0.053
    2  0.006  0.000  0.000  0.001  0.011  0.001  0.001  0.004  0.002  0.027
    3  0.000  0.001  0.000  0.000  0.001  0.002  0.003  0.000  0.004  0.012
    4  0.001  0.001  0.000  0.000  0.004  0.003  0.002  0.001  0.007  0.018
    5  0.001  0.001  0.002  0.001  0.005  0.002  0.026  0.003  0.004  0.046
    6  0.001  0.000  0.001  0.003  0.024  0.000  0.014  0.010  0.001  0.054
    7  0.002  0.000  0.001  0.001  0.005  0.002  0.020  0.002  0.004  0.037
    8  0.002  0.000  0.000  0.001  0.006  0.000  0.002  0.003  0.001  0.015
    9  0.002  0.000  0.001  0.001  0.015  0.002  0.025  0.007  0.004  0.059
   10  0.000  0.000  0.000  0.000  0.000  0.001  0.002  0.000  0.002  0.005
   11  0.000  0.000  0.001  0.001  0.011  0.002  0.017  0.005  0.002  0.041
   12  0.001  0.000  0.000  0.001  0.010  0.001  0.005  0.006  0.001  0.026
   13  0.000  0.001  0.002  0.001  0.007  0.007  0.023  0.003  0.015  0.059
   14  0.004  0.000  0.000  0.000  0.000  0.001  0.001  0.000  0.003  0.010
   15  0.002  0.001  0.001  0.001  0.013  0.004  0.016  0.007  0.006  0.052
   16  0.004  0.000  0.000  0.000  0.000  0.000  0.000  0.000  0.000  0.004
   17  0.014  0.000  0.000  0.000  0.000  0.000  0.000  0.000  0.000  0.014
   18  0.008  0.000  0.000  0.000  0.000  0.000  0.000  0.000  0.000  0.008
   19  0.004  0.000  0.000  0.000  0.000  0.000  0.000  0.000  0.000  0.004
   20  0.004  0.000  0.000  0.000  0.000  0.000  0.000  0.000  0.000  0.004
   21  0.033  0.000  0.000  0.000  0.000  0.000  0.000  0.000  0.000  0.033
   22  0.046  0.000  0.000  0.000  0.000  0.000  0.000  0.000  0.000  0.046
   23  0.048  0.000  0.000  0.000  0.000  0.000  0.000  0.000  0.000  0.048
   24  0.000  0.000  0.000  0.000  0.000  0.000  0.000  0.000  0.000  0.000
   25  0.064  0.000  0.000  0.000  0.000  0.000  0.000  0.000  0.000  0.064
   26  0.001  0.000  0.000  0.000  0.000  0.000  0.000  0.000  0.000  0.001
   27  0.035  0.000  0.000  0.000  0.000  0.000  0.000  0.000  0.000  0.035
   28  0.008  0.000  0.000  0.000  0.000  0.000  0.000  0.000  0.000  0.008
   29  0.042  0.000  0.000  0.000  0.000  0.000  0.000  0.000  0.000  0.042
   30  0.002  0.000  0.000  0.000  0.000  0.000  0.000  0.000  0.000  0.002
   31  0.021  0.000  0.000  0.000  0.000  0.000  0.000  0.000  0.000  0.021
tot    0.359  0.008  0.011  0.013  0.120  0.036  0.171  0.058  0.073  0.849

band     9 # energy  -10.53619290 # occ.  1.00000000

ion      s     py     pz     px    dxy    dyz    dz2    dxz  x2-y2    tot
    1  0.000  0.001  0.001  0.001  0.008  0.003  0.010  0.003  0.006  0.031
    2  0.000  0.000  0.003  0.002  0.013  0.002  0.033  0.006  0.003  0.062
    3  0.002  0.000  0.001  0.000  0.000  0.001  0.007  0.000  0.003  0.014
    4  0.002  0.001  0.000  0.000  0.002  0.004  0.001  0.000  0.010  0.020
    5  0.000  0.004  0.000  0.000  0.001  0.022  0.001  0.000  0.043  0.071
    6  0.006  0.001  0.001  0.000  0.005  0.003  0.016  0.002  0.006  0.040
    7  0.000  0.000  0.000  0.001  0.004  0.001  0.003  0.003  0.002  0.014
    8  0.001  0.000  0.000  0.000  0.002  0.001  0.000  0.001  0.004  0.010
    9  0.001  0.002  0.001  0.000  0.001  0.010  0.017  0.001  0.023  0.057
   10  0.006  0.001  0.000  0.000  0.003  0.002  0.004  0.002  0.004  0.022
   11  0.000  0.001  0.001  0.000  0.004  0.003  0.012  0.002  0.007  0.031
   12  0.001  0.000  0.001  0.000  0.003  0.002  0.009  0.001  0.005  0.023
   13  0.003  0.000  0.003  0.002  0.017  0.002  0.044  0.009  0.004  0.084
   14  0.005  0.000  0.000  0.000  0.000  0.000  0.007  0.001  0.000  0.015
   15  0.000  0.000  0.000  0.000  0.004  0.001  0.005  0.002  0.003  0.015
   16  0.011  0.000  0.000  0.000  0.000  0.000  0.000  0.000  0.000  0.011
   17  0.015  0.000  0.000  0.000  0.000  0.000  0.000  0.000  0.000  0.015
   18  0.060  0.000  0.000  0.000  0.000  0.000  0.000  0.000  0.000  0.060
   19  0.029  0.000  0.000  0.000  0.000  0.000  0.000  0.000  0.000  0.029
   20  0.012  0.000  0.000  0.000  0.000  0.000  0.000  0.000  0.000  0.012
   21  0.001  0.000  0.000  0.000  0.000  0.000  0.000  0.000  0.000  0.001
   22  0.033  0.000  0.000  0.000  0.000  0.000  0.000  0.000  0.000  0.033
   23  0.004  0.000  0.000  0.000  0.000  0.000  0.000  0.000  0.000  0.004
   24  0.004  0.000  0.000  0.000  0.000  0.000  0.000  0.000  0.000  0.004
   25  0.014  0.000  0.000  0.000  0.000  0.000  0.000  0.000  0.000  0.014
   26  0.001  0.000  0.000  0.000  0.000  0.000  0.000  0.000  0.000  0.001
   27  0.021  0.000  0.000  0.000  0.000  0.000  0.000  0.000  0.000  0.021
   28  0.020  0.000  0.000  0.000  0.000  0.000  0.000  0.000  0.000  0.020
   29  0.101  0.000  0.000  0.000  0.000  0.000  0.000  0.000  0.000  0.101
   30  0.001  0.000  0.000  0.000  0.000  0.000  0.000  0.000  0.000  0.001
   31  0.010  0.000  0.000  0.000  0.000  0.000  0.000  0.000  0.000  0.010
tot    0.365  0.013  0.011  0.007  0.067  0.058  0.170  0.033  0.121  0.847

band    10 # energy  -10.51363944 # occ.  1.00000000

ion      s     py     pz     px    dxy    dyz    dz2    dxz  x2-y2    tot
    1  0.001  0.000  0.000  0.000  0.004  0.002  0.001  0.002  0.004  0.014
    2  0.000  0.000  0.000  0.000  0.003  0.001  0.001  0.001  0.001  0.006
    3  0.004  0.001  0.000  0.000  0.000  0.002  0.001  0.000  0.006  0.013
    4  0.002  0.000  0.003  0.001  0.006  0.001  0.047  0.003  0.003  0.067
    5  0.000  0.000  0.000  0.001  0.007  0.001  0.004  0.004  0.002  0.020
    6  0.000  0.000  0.000  0.000  0.001  0.001  0.004  0.000  0.001  0.008
    7  0.000  0.001  0.003  0.000  0.005  0.004  0.039  0.003  0.012  0.067
    8  0.000  0.000  0.000  0.005  0.039  0.000  0.001  0.019  0.000  0.064
    9  0.000  0.000  0.000  0.001  0.004  0.000  0.001  0.002  0.000  0.009
   10  0.001  0.000  0.000  0.000  0.000  0.000  0.002  0.000  0.000  0.003
   11  0.004  0.001  0.002  0.003  0.031  0.006  0.033  0.015  0.011  0.107
   12  0.002  0.003  0.000  0.000  0.002  0.017  0.008  0.001  0.033  0.067
   13  0.000  0.001  0.000  0.000  0.002  0.003  0.001  0.001  0.006  0.015
   14  0.000  0.000  0.000  0.000  0.000  0.001  0.001  0.000  0.002  0.005
   15  0.000  0.002  0.001  0.000  0.003  0.012  0.017  0.001  0.027  0.065
   16  0.000  0.000  0.000  0.000  0.000  0.000  0.000  0.000  0.000  0.000
   17  0.000  0.000  0.000  0.000  0.000  0.000  0.000  0.000  0.000  0.000
   18  0.004  0.000  0.000  0.000  0.000  0.000  0.000  0.000  0.000  0.004
   19  0.005  0.000  0.000  0.000  0.000  0.000  0.000  0.000  0.000  0.005
   20  0.113  0.000  0.000  0.000  0.000  0.000  0.000  0.000  0.000  0.113
   21  0.012  0.000  0.000  0.000  0.000  0.000  0.000  0.000  0.000  0.012
   22  0.013  0.000  0.000  0.000  0.000  0.000  0.000  0.000  0.000  0.013
   23  0.089  0.000  0.000  0.000  0.000  0.000  0.000  0.000  0.000  0.089
   24  0.002  0.000  0.000  0.000  0.000  0.000  0.000  0.000  0.000  0.002
   25  0.003  0.000  0.000  0.000  0.000  0.000  0.000  0.000  0.000  0.003
   26  0.004  0.000  0.000  0.000  0.000  0.000  0.000  0.000  0.000  0.004
   27  0.051  0.000  0.000  0.000  0.000  0.000  0.000  0.000  0.000  0.051
   28  0.007  0.000  0.000  0.000  0.000  0.000  0.000  0.000  0.000  0.007
   29  0.005  0.000  0.000  0.000  0.000  0.000  0.000  0.000  0.000  0.005
   30  0.001  0.000  0.000  0.000  0.000  0.000  0.000  0.000  0.000  0.001
   31  0.019  0.000  0.000  0.000  0.000  0.000  0.000  0.000  0.000  0.019
tot    0.343  0.010  0.011  0.012  0.109  0.052  0.160  0.053  0.109  0.859

band    11 # energy  -10.48579665 # occ.  1.00000000

ion      s     py     pz     px    dxy    dyz    dz2    dxz  x2-y2    tot
    1  0.001  0.002  0.000  0.000  0.002  0.011  0.002  0.001  0.022  0.040
    2  0.001  0.000  0.002  0.002  0.024  0.002  0.030  0.011  0.003  0.076
    3  0.000  0.000  0.000  0.000  0.001  0.002  0.004  0.000  0.002  0.010
    4  0.000  0.000  0.000  0.000  0.002  0.002  0.000  0.001  0.005  0.010
    5  0.001  0.001  0.000  0.000  0.002  0.007  0.004  0.001  0.013  0.029
    6  0.001  0.000  0.002  0.003  0.025  0.002  0.027  0.011  0.002  0.074
    7  0.001  0.000  0.000  0.000  0.001  0.000  0.004  0.001  0.001  0.008
    8  0.000  0.000  0.000  0.000  0.001  0.000  0.000  0.000  0.001  0.002
    9  0.002  0.001  0.003  0.003  0.035  0.003  0.046  0.018  0.006  0.116
   10  0.004  0.001  0.000  0.000  0.002  0.003  0.001  0.001  0.008  0.020
   11  0.000  0.000  0.001  0.000  0.001  0.001  0.010  0.000  0.002  0.016
   12  0.000  0.000  0.000  0.000  0.001  0.000  0.003  0.000  0.000  0.005
   13  0.001  0.000  0.001  0.005  0.048  0.000  0.021  0.026  0.000  0.101
   14  0.003  0.001  0.000  0.000  0.002  0.005  0.001  0.001  0.010  0.024
   15  0.000  0.000  0.000  0.000  0.000  0.002  0.000  0.000  0.003  0.005
   16  0.001  0.000  0.000  0.000  0.000  0.000  0.000  0.000  0.000  0.001
   17  0.000  0.000  0.000  0.000  0.000  0.000  0.000  0.000  0.000  0.000
   18  0.078  0.000  0.000  0.000  0.000  0.000  0.000  0.000  0.000  0.078
   19  0.013  0.000  0.000  0.000  0.000  0.000  0.000  0.000  0.000  0.013
   20  0.000  0.000  0.000  0.000  0.000  0.000  0.000  0.000  0.000  0.000
   21  0.003  0.000  0.000  0.000  0.000  0.000  0.000  0.000  0.000  0.003
   22  0.078  0.000  0.000  0.000  0.000  0.000  0.000  0.000  0.000  0.078
   23  0.005  0.000  0.000  0.000  0.000  0.000  0.000  0.000  0.000  0.005
   24  0.001  0.000  0.000  0.000  0.000  0.000  0.000  0.000  0.000  0.001
   25  0.071  0.000  0.000  0.000  0.000  0.000  0.000  0.000  0.000  0.071
   26  0.002  0.000  0.000  0.000  0.000  0.000  0.000  0.000  0.000  0.002
   27  0.015  0.000  0.000  0.000  0.000  0.000  0.000  0.000  0.000  0.015
   28  0.006  0.000  0.000  0.000  0.000  0.000  0.000  0.000  0.000  0.006
   29  0.047  0.000  0.000  0.000  0.000  0.000  0.000  0.000  0.000  0.047
   30  0.001  0.000  0.000  0.000  0.000  0.000  0.000  0.000  0.000  0.001
   31  0.001  0.000  0.000  0.000  0.000  0.000  0.000  0.000  0.000  0.001
tot    0.338  0.008  0.010  0.014  0.146  0.038  0.156  0.072  0.078  0.859

band    12 # energy  -10.44535579 # occ.  1.00000000

ion      s     py     pz     px    dxy    dyz    dz2    dxz  x2-y2    tot
    1  0.000  0.000  0.000  0.000  0.001  0.000  0.001  0.000  0.000  0.003
    2  0.002  0.000  0.002  0.000  0.000  0.000  0.023  0.001  0.000  0.029
    3  0.004  0.002  0.003  0.000  0.000  0.008  0.037  0.000  0.006  0.060
    4  0.002  0.000  0.000  0.000  0.002  0.002  0.001  0.001  0.007  0.017
    5  0.000  0.000  0.000  0.000  0.000  0.003  0.000  0.000  0.006  0.009
    6  0.000  0.000  0.002  0.000  0.001  0.000  0.025  0.001  0.000  0.030
    7  0.002  0.000  0.000  0.000  0.003  0.003  0.000  0.001  0.008  0.017
    8  0.000  0.000  0.000  0.000  0.001  0.000  0.003  0.000  0.002  0.007
    9  0.002  0.000  0.000  0.002  0.026  0.003  0.003  0.014  0.009  0.061
   10  0.003  0.004  0.000  0.001  0.009  0.016  0.002  0.004  0.028  0.067
   11  0.002  0.004  0.001  0.000  0.000  0.018  0.025  0.000  0.037  0.087
   12  0.000  0.000  0.000  0.000  0.000  0.000  0.002  0.000  0.000  0.003
   13  0.004  0.001  0.001  0.000  0.001  0.008  0.021  0.001  0.020  0.057
   14  0.004  0.003  0.000  0.001  0.010  0.014  0.000  0.005  0.026  0.064
   15  0.000  0.000  0.000  0.000  0.000  0.001  0.002  0.000  0.001  0.004
   16  0.008  0.000  0.000  0.000  0.000  0.000  0.000  0.000  0.000  0.008
   17  0.001  0.000  0.000  0.000  0.000  0.000  0.000  0.000  0.000  0.001
   18  0.059  0.000  0.000  0.000  0.000  0.000  0.000  0.000  0.000  0.059
   19  0.138  0.000  0.000  0.000  0.000  0.000  0.000  0.000  0.000  0.138
   20  0.001  0.000  0.000  0.000  0.000  0.000  0.000  0.000  0.000  0.001