PROCAR lm decomposed
# of k-points:    2         # of bands:  216         # of ions:   31

 k-point     1 :    0.25000000 0.25000000 0.25000000     weight = 1.00000000

band     1 # energy  -11.19960881 # occ.  1.00000000

ion      s     py     pz     px    dxy    dyz    dz2    dxz  x2-y2    tot
    1  0.021  0.000  0.001  0.001  0.002  0.000  0.004  0.001  0.000  0.031
    2  0.008  0.000  0.000  0.000  0.001  0.000  0.001  0.000  0.000  0.012
    3  0.003  0.000  0.000  0.000  0.000  0.000  0.000  0.000  0.001  0.006
    4  0.012  0.000  0.000  0.000  0.001  0.000  0.002  0.000  0.000  0.016
    5  0.023  0.000  0.001  0.001  0.002  0.000  0.004  0.001  0.000  0.031
    6  0.007  0.000  0.000  0.000  0.001  0.000  0.001  0.000  0.001  0.011
    7  0.012  0.000  0.000  0.000  0.000  0.000  0.002  0.000  0.000  0.017
    8  0.006  0.000  0.000  0.000  0.001  0.000  0.001  0.000  0.001  0.010
    9  0.013  0.000  0.000  0.000  0.001  0.000  0.002  0.000  0.001  0.018
   10  0.003  0.000  0.000  0.000  0.000  0.000  0.001  0.000  0.000  0.005
   11  0.009  0.000  0.000  0.000  0.001  0.000  0.001  0.000  0.001  0.013
   12  0.021  0.000  0.001  0.001  0.002  0.000  0.004  0.001  0.000  0.031
   13  0.013  0.000  0.000  0.000  0.000  0.000  0.002  0.000  0.001  0.018
   14  0.003  0.000  0.000  0.000  0.000  0.000  0.000  0.000  0.000  0.005
   15  0.022  0.000  0.001  0.001  0.002  0.000  0.004  0.001  0.000  0.031
   16  0.003  0.000  0.000  0.000  0.000  0.000  0.000  0.000  0.000  0.003
   17  0.058  0.000  0.000  0.000  0.000  0.000  0.000  0.000  0.000  0.059
   18  0.019  0.000  0.000  0.000  0.000  0.000  0.000  0.000  0.000  0.019
   19  0.008  0.000  0.000  0.000  0.000  0.000  0.000  0.000  0.000  0.008
   20  0.029  0.000  0.000  0.000  0.000  0.000  0.000  0.000  0.000  0.029
   21  0.059  0.000  0.000  0.000  0.000  0.000  0.000  0.000  0.000  0.059
   22  0.018  0.000  0.000  0.000  0.000  0.000  0.000  0.000  0.000  0.018
   23  0.030  0.000  0.000  0.000  0.000  0.000  0.000  0.000  0.000  0.030
   24  0.011  0.000  0.000  0.000  0.000  0.000  0.000  0.000  0.000  0.012
   25  0.030  0.000  0.000  0.000  0.000  0.000  0.000  0.000  0.000  0.030
   26  0.005  0.000  0.000  0.000  0.000  0.000  0.000  0.000  0.000  0.005
   27  0.022  0.000  0.000  0.000  0.000  0.000  0.000  0.000  0.000  0.022
   28  0.057  0.000  0.000  0.000  0.000  0.000  0.000  0.000  0.000  0.057
   29  0.030  0.000  0.000  0.000  0.000  0.000  0.000  0.000  0.000  0.030
   30  0.004  0.000  0.000  0.000  0.000  0.000  0.000  0.000  0.000  0.004
   31  0.059  0.000  0.000  0.000  0.000  0.000  0.000  0.000  0.000  0.059
tot    0.619  0.004  0.007  0.005  0.016  0.004  0.029  0.008  0.009  0.698

band     2 # energy  -10.91317713 # occ.  1.00000000

ion      s     py     pz     px    dxy    dyz    dz2    dxz  x2-y2    tot
    1  0.003  0.001  0.000  0.000  0.001  0.004  0.001  0.000  0.008  0.019
    2  0.011  0.000  0.001  0.000  0.001  0.001  0.003  0.001  0.001  0.019
    3  0.013  0.001  0.001  0.000  0.000  0.001  0.002  0.000  0.004  0.022
    4  0.012  0.000  0.000  0.000  0.003  0.001  0.002  0.001  0.004  0.024
    5  0.002  0.002  0.000  0.000  0.001  0.004  0.001  0.000  0.008  0.017
    6  0.013  0.000  0.001  0.000  0.002  0.000  0.004  0.000  0.000  0.021
    7  0.009  0.000  0.000  0.001  0.004  0.001  0.003  0.002  0.004  0.023
    8  0.008  0.000  0.000  0.001  0.002  0.000  0.003  0.001  0.001  0.016
    9  0.011  0.001  0.000  0.000  0.003  0.002  0.003  0.001  0.005  0.027
   10  0.009  0.000  0.000  0.000  0.001  0.001  0.002  0.000  0.001  0.016
   11  0.018  0.000  0.001  0.000  0.001  0.001  0.005  0.001  0.002  0.029
   12  0.003  0.002  0.000  0.000  0.001  0.004  0.001  0.000  0.009  0.021
   13  0.011  0.001  0.000  0.000  0.002  0.002  0.002  0.001  0.004  0.024
   14  0.011  0.000  0.000  0.000  0.002  0.001  0.001  0.001  0.001  0.017
   15  0.002  0.001  0.000  0.000  0.001  0.004  0.001  0.000  0.008  0.017
   16  0.011  0.000  0.000  0.000  0.000  0.000  0.000  0.000  0.000  0.011
   17  0.012  0.000  0.000  0.000  0.000  0.000  0.000  0.000  0.000  0.012
   18  0.038  0.000  0.000  0.000  0.000  0.000  0.000  0.000  0.000  0.038
   19  0.041  0.000  0.000  0.000  0.000  0.000  0.000  0.000  0.000  0.041
   20  0.044  0.000  0.000  0.000  0.000  0.000  0.000  0.000  0.000  0.044
   21  0.007  0.000  0.000  0.000  0.000  0.000  0.000  0.000  0.000  0.007
   22  0.046  0.000  0.000  0.000  0.000  0.000  0.000  0.000  0.000  0.046
   23  0.033  0.000  0.000  0.000  0.000  0.000  0.000  0.000  0.000  0.034
   24  0.013  0.000  0.000  0.000  0.000  0.000  0.000  0.000  0.000  0.013
   25  0.037  0.000  0.000  0.000  0.000  0.000  0.000  0.000  0.000  0.037
   26  0.013  0.000  0.000  0.000  0.000  0.000  0.000  0.000  0.000  0.013
   27  0.060  0.000  0.000  0.000  0.000  0.000  0.000  0.000  0.000  0.060
   28  0.015  0.000  0.000  0.000  0.000  0.000  0.000  0.000  0.000  0.015
   29  0.032  0.000  0.000  0.000  0.000  0.000  0.000  0.000  0.000  0.032
   30  0.018  0.000  0.000  0.000  0.000  0.000  0.000  0.000  0.000  0.018
   31  0.008  0.000  0.000  0.000  0.000  0.000  0.000  0.000  0.000  0.008
tot    0.561  0.011  0.006  0.005  0.024  0.028  0.035  0.010  0.061  0.740

band     3 # energy  -10.76381875 # occ.  1.00000000

ion      s     py     pz     px    dxy    dyz    dz2    dxz  x2-y2    tot
    1  0.010  0.000  0.001  0.003  0.024  0.000  0.017  0.012  0.001  0.068
    2  0.003  0.000  0.000  0.001  0.005  0.000  0.001  0.002  0.000  0.013
    3  0.001  0.000  0.000  0.000  0.000  0.000  0.000  0.000  0.001  0.002
    4  0.003  0.001  0.000  0.000  0.001  0.002  0.002  0.001  0.005  0.016
    5  0.010  0.000  0.001  0.003  0.022  0.001  0.006  0.011  0.002  0.055
    6  0.001  0.000  0.000  0.001  0.008  0.000  0.000  0.003  0.000  0.013
    7  0.007  0.001  0.000  0.000  0.001  0.002  0.002  0.001  0.006  0.019
    8  0.001  0.000  0.000  0.001  0.005  0.000  0.000  0.002  0.000  0.010
    9  0.006  0.002  0.000  0.000  0.002  0.006  0.001  0.001  0.016  0.035
   10  0.001  0.000  0.000  0.000  0.000  0.000  0.000  0.000  0.001  0.003
   11  0.001  0.000  0.000  0.001  0.009  0.000  0.001  0.004  0.000  0.017
   12  0.009  0.000  0.000  0.004  0.033  0.000  0.005  0.016  0.000  0.067
   13  0.007  0.001  0.000  0.000  0.001  0.002  0.003  0.001  0.006  0.021
   14  0.000  0.000  0.000  0.000  0.000  0.000  0.000  0.000  0.000  0.001
   15  0.011  0.000  0.001  0.004  0.031  0.000  0.012  0.014  0.001  0.075
   16  0.001  0.000  0.000  0.000  0.000  0.000  0.000  0.000  0.000  0.001
   17  0.100  0.000  0.000  0.000  0.000  0.000  0.000  0.000  0.000  0.100
   18  0.012  0.000  0.000  0.000  0.000  0.000  0.000  0.000  0.000  0.012
   19  0.001  0.000  0.000  0.000  0.000  0.000  0.000  0.000  0.000  0.001
   20  0.014  0.000  0.000  0.000  0.000  0.000  0.000  0.000  0.000  0.014
   21  0.054  0.000  0.000  0.000  0.000  0.000  0.000  0.000  0.000  0.054
   22  0.002  0.000  0.000  0.000  0.000  0.000  0.000  0.000  0.000  0.002
   23  0.029  0.000  0.000  0.000  0.000  0.000  0.000  0.000  0.000  0.029
   24  0.002  0.000  0.000  0.000  0.000  0.000  0.000  0.000  0.000  0.002
   25  0.016  0.000  0.000  0.000  0.000  0.000  0.000  0.000  0.000  0.016
   26  0.001  0.000  0.000  0.000  0.000  0.000  0.000  0.000  0.000  0.001
   27  0.006  0.000  0.000  0.000  0.000  0.000  0.000  0.000  0.000  0.007
   28  0.050  0.000  0.000  0.000  0.000  0.000  0.000  0.000  0.000  0.050
   29  0.029  0.000  0.000  0.000  0.000  0.000  0.000  0.000  0.000  0.029
   30  0.001  0.000  0.000  0.000  0.000  0.000  0.000  0.000  0.000  0.001
   31  0.065  0.000  0.000  0.000  0.000  0.000  0.000  0.000  0.000  0.065
tot    0.452  0.005  0.005  0.020  0.141  0.016  0.052  0.069  0.039  0.798

band     4 # energy  -10.70853126 # occ.  1.00000000

ion      s     py     pz     px    dxy    dyz    dz2    dxz  x2-y2    tot
    1  0.002  0.002  0.000  0.000  0.003  0.010  0.003  0.001  0.024  0.047
    2  0.006  0.000  0.000  0.000  0.004  0.000  0.003  0.001  0.001  0.016
    3  0.005  0.001  0.000  0.000  0.000  0.002  0.003  0.000  0.004  0.017
    4  0.002  0.002  0.000  0.001  0.005  0.006  0.003  0.003  0.014  0.036
    5  0.008  0.001  0.001  0.000  0.003  0.005  0.007  0.001  0.012  0.040
    6  0.005  0.000  0.000  0.000  0.001  0.001  0.002  0.001  0.003  0.013
    7  0.004  0.001  0.001  0.000  0.003  0.004  0.006  0.000  0.011  0.030
    8  0.004  0.000  0.000  0.000  0.001  0.000  0.000  0.000  0.002  0.008
    9  0.006  0.001  0.000  0.000  0.001  0.005  0.002  0.000  0.011  0.029
   10  0.005  0.001  0.000  0.000  0.001  0.001  0.001  0.000  0.002  0.011
   11  0.010  0.000  0.000  0.000  0.002  0.001  0.004  0.001  0.003  0.022
   12  0.004  0.002  0.001  0.001  0.006  0.007  0.015  0.003  0.015  0.053
   13  0.003  0.003  0.000  0.000  0.003  0.010  0.000  0.001  0.022  0.042
   14  0.003  0.001  0.000  0.000  0.002  0.002  0.000  0.001  0.003  0.011
   15  0.001  0.002  0.001  0.000  0.004  0.010  0.009  0.002  0.022  0.052
   16  0.003  0.000  0.000  0.000  0.000  0.000  0.000  0.000  0.000  0.003
   17  0.018  0.000  0.000  0.000  0.000  0.000  0.000  0.000  0.000  0.018
   18  0.031  0.000  0.000  0.000  0.000  0.000  0.000  0.000  0.000  0.031
   19  0.025  0.000  0.000  0.000  0.000  0.000  0.000  0.000  0.000  0.025
   20  0.012  0.000  0.000  0.000  0.000  0.000  0.000  0.000  0.000  0.012
   21  0.065  0.000  0.000  0.000  0.000  0.000  0.000  0.000  0.000  0.065
   22  0.024  0.000  0.000  0.000  0.000  0.000  0.000  0.000  0.000  0.024
   23  0.027  0.000  0.000  0.000  0.000  0.000  0.000  0.000  0.000  0.027
   24  0.007  0.000  0.000  0.000  0.000  0.000  0.000  0.000  0.000  0.007
   25  0.031  0.000  0.000  0.000  0.000  0.000  0.000  0.000  0.000  0.031
   26  0.008  0.000  0.000  0.000  0.000  0.000  0.000  0.000  0.000  0.008
   27  0.047  0.000  0.000  0.000  0.000  0.000  0.000  0.000  0.000  0.047
   28  0.048  0.000  0.000  0.000  0.000  0.000  0.000  0.000  0.000  0.048
   29  0.008  0.000  0.000  0.000  0.000  0.000  0.000  0.000  0.000  0.008
   30  0.004  0.000  0.000  0.000  0.000  0.000  0.000  0.000  0.000  0.004
   31  0.020  0.000  0.000  0.000  0.000  0.000  0.000  0.000  0.000  0.020
tot    0.444  0.018  0.006  0.005  0.039  0.066  0.060  0.016  0.151  0.805

band     5 # energy  -10.68694746 # occ.  1.00000000

ion      s     py     pz     px    dxy    dyz    dz2    dxz  x2-y2    tot
    1  0.008  0.000  0.004  0.000  0.003  0.001  0.057  0.002  0.003  0.078
    2  0.003  0.000  0.000  0.000  0.002  0.001  0.003  0.001  0.001  0.012
    3  0.000  0.000  0.000  0.000  0.000  0.000  0.001  0.000  0.000  0.002
    4  0.002  0.001  0.001  0.000  0.000  0.002  0.012  0.000  0.004  0.022
    5  0.004  0.000  0.004  0.001  0.006  0.001  0.053  0.004  0.003  0.077
    6  0.003  0.000  0.000  0.000  0.001  0.001  0.004  0.001  0.002  0.012
    7  0.002  0.001  0.001  0.000  0.000  0.004  0.013  0.000  0.006  0.027
    8  0.002  0.000  0.000  0.000  0.001  0.001  0.003  0.001  0.001  0.009
    9  0.001  0.001  0.002  0.000  0.000  0.003  0.025  0.000  0.006  0.038
   10  0.000  0.000  0.000  0.000  0.000  0.000  0.001  0.000  0.001  0.003
   11  0.002  0.000  0.001  0.000  0.001  0.001  0.007  0.000  0.001  0.014
   12  0.007  0.000  0.003  0.000  0.003  0.001  0.051  0.002  0.003  0.070
   13  0.002  0.001  0.001  0.000  0.000  0.004  0.016  0.000  0.007  0.031
   14  0.000  0.000  0.000  0.000  0.000  0.000  0.001  0.000  0.000  0.002
   15  0.008  0.000  0.003  0.001  0.006  0.001  0.048  0.003  0.002  0.072
   16  0.001  0.000  0.000  0.000  0.000  0.000  0.000  0.000  0.000  0.001
   17  0.053  0.000  0.000  0.000  0.000  0.000  0.000  0.000  0.000  0.053
   18  0.006  0.000  0.000  0.000  0.000  0.000  0.000  0.000  0.000  0.006
   19  0.003  0.000  0.000  0.000  0.000  0.000  0.000  0.000  0.000  0.003
   20  0.019  0.000  0.000  0.000  0.000  0.000  0.000  0.000  0.000  0.019
   21  0.068  0.000  0.000  0.000  0.000  0.000  0.000  0.000  0.000  0.068
   22  0.002  0.000  0.000  0.000  0.000  0.000  0.000  0.000  0.000  0.002
   23  0.019  0.000  0.000  0.000  0.000  0.000  0.000  0.000  0.000  0.019
   24  0.001  0.000  0.000  0.000  0.000  0.000  0.000  0.000  0.000  0.001
   25  0.035  0.000  0.000  0.000  0.000  0.000  0.000  0.000  0.000  0.035
   26  0.001  0.000  0.000  0.000  0.000  0.000  0.000  0.000  0.000  0.001
   27  0.004  0.000  0.000  0.000  0.000  0.000  0.000  0.000  0.000  0.004
   28  0.058  0.000  0.000  0.000  0.000  0.000  0.000  0.000  0.000  0.058
   29  0.015  0.000  0.000  0.000  0.000  0.000  0.000  0.000  0.000  0.015
   30  0.000  0.000  0.000  0.000  0.000  0.000  0.000  0.000  0.000  0.000
   31  0.070  0.000  0.000  0.000  0.000  0.000  0.000  0.000  0.000  0.070
tot    0.400  0.005  0.021  0.004  0.026  0.021  0.296  0.014  0.039  0.826

band     6 # energy  -10.64552463 # occ.  1.00000000

ion      s     py     pz     px    dxy    dyz    dz2    dxz  x2-y2    tot
    1  0.001  0.001  0.002  0.003  0.032  0.003  0.025  0.015  0.007  0.088
    2  0.001  0.000  0.000  0.001  0.004  0.000  0.001  0.002  0.000  0.009
    3  0.001  0.000  0.000  0.000  0.000  0.001  0.000  0.000  0.001  0.003
    4  0.006  0.001  0.001  0.000  0.002  0.002  0.009  0.002  0.003  0.025
    5  0.001  0.001  0.001  0.003  0.027  0.004  0.010  0.014  0.009  0.069
    6  0.002  0.000  0.000  0.000  0.003  0.000  0.003  0.002  0.000  0.010
    7  0.005  0.001  0.000  0.001  0.003  0.004  0.001  0.003  0.009  0.025
    8  0.004  0.000  0.000  0.001  0.004  0.000  0.001  0.002  0.001  0.013
    9  0.004  0.001  0.000  0.001  0.007  0.005  0.002  0.003  0.011  0.033
   10  0.000  0.000  0.000  0.000  0.001  0.000  0.000  0.000  0.001  0.003
   11  0.001  0.000  0.000  0.002  0.014  0.000  0.002  0.007  0.001  0.027
   12  0.001  0.002  0.001  0.002  0.022  0.010  0.017  0.010  0.020  0.086
   13  0.004  0.000  0.000  0.001  0.005  0.001  0.002  0.003  0.003  0.018
   14  0.001  0.000  0.000  0.000  0.000  0.001  0.001  0.000  0.001  0.005
   15  0.002  0.001  0.001  0.002  0.027  0.004  0.021  0.013  0.008  0.080
   16  0.002  0.000  0.000  0.000  0.000  0.000  0.000  0.000  0.000  0.002
   17  0.066  0.000  0.000  0.000  0.000  0.000  0.000  0.000  0.000  0.066
   18  0.007  0.000  0.000  0.000  0.000  0.000  0.000  0.000  0.000  0.007
   19  0.001  0.000  0.000  0.000  0.000  0.000  0.000  0.000  0.000  0.001
   20  0.041  0.000  0.000  0.000  0.000  0.000  0.000  0.000  0.000  0.041
   21  0.030  0.000  0.000  0.000  0.000  0.000  0.000  0.000  0.000  0.030
   22  0.018  0.000  0.000  0.000  0.000  0.000  0.000  0.000  0.000  0.018
   23  0.018  0.000  0.000  0.000  0.000  0.000  0.000  0.000  0.000  0.018
   24  0.006  0.000  0.000  0.000  0.000  0.000  0.000  0.000  0.000  0.006
   25  0.010  0.000  0.000  0.000  0.000  0.000  0.000  0.000  0.000  0.010
   26  0.001  0.000  0.000  0.000  0.000  0.000  0.000  0.000  0.000  0.001
   27  0.010  0.000  0.000  0.000  0.000  0.000  0.000  0.000  0.000  0.010
   28  0.051  0.000  0.000  0.000  0.000  0.000  0.000  0.000  0.000  0.051
   29  0.013  0.000  0.000  0.000  0.000  0.000  0.000  0.000  0.000  0.013
   30  0.001  0.000  0.000  0.000  0.000  0.000  0.000  0.000  0.000  0.001
   31  0.068  0.000  0.000  0.000  0.000  0.000  0.000  0.000  0.000  0.068
tot    0.378  0.008  0.007  0.016  0.151  0.035  0.094  0.075  0.074  0.838

band     7 # energy  -10.57574119 # occ.  1.00000000

ion      s     py     pz     px    dxy    dyz    dz2    dxz  x2-y2    tot
    1  0.001  0.002  0.001  0.001  0.008  0.009  0.010  0.004  0.019  0.054
    2  0.003  0.001  0.000  0.001  0.007  0.002  0.005  0.004  0.005  0.027
    3  0.006  0.000  0.001  0.000  0.001  0.000  0.005  0.000  0.002  0.015
    4  0.001  0.001  0.002  0.001  0.005  0.002  0.022  0.003  0.005  0.040
    5  0.000  0.000  0.001  0.001  0.009  0.000  0.011  0.005  0.000  0.028
    6  0.004  0.000  0.001  0.001  0.004  0.002  0.006  0.002  0.003  0.023
    7  0.001  0.000  0.001  0.001  0.005  0.002  0.010  0.003  0.004  0.026
    8  0.006  0.001  0.000  0.000  0.000  0.002  0.003  0.000  0.003  0.015
    9  0.001  0.001  0.001  0.001  0.013  0.003  0.024  0.006  0.006  0.056
   10  0.004  0.000  0.000  0.000  0.003  0.001  0.000  0.001  0.002  0.012
   11  0.001  0.002  0.001  0.001  0.009  0.010  0.012  0.004  0.019  0.059
   12  0.000  0.001  0.001  0.001  0.013  0.006  0.021  0.007  0.012  0.062
   13  0.001  0.001  0.000  0.001  0.009  0.004  0.002  0.004  0.007  0.029
   14  0.003  0.000  0.000  0.001  0.004  0.001  0.001  0.001  0.001  0.011
   15  0.000  0.002  0.000  0.001  0.005  0.010  0.004  0.003  0.018  0.043
   16  0.001  0.000  0.000  0.000  0.000  0.000  0.000  0.000  0.000  0.001
   17  0.020  0.000  0.000  0.000  0.000  0.000  0.000  0.000  0.000  0.020
   18  0.028  0.000  0.000  0.000  0.000  0.000  0.000  0.000  0.000  0.028
   19  0.029  0.000  0.000  0.000  0.000  0.000  0.000  0.000  0.000  0.029
   20  0.050  0.000  0.000  0.000  0.000  0.000  0.000  0.000  0.000  0.050
   21  0.023  0.000  0.000  0.000  0.000  0.000  0.000  0.000  0.000  0.023
   22  0.016  0.000  0.000  0.000  0.000  0.000  0.000  0.000  0.000  0.016
   23  0.032  0.000  0.000  0.000  0.000  0.000  0.000  0.000  0.000  0.032
   24  0.001  0.000  0.000  0.000  0.000  0.000  0.000  0.000  0.000  0.001
   25  0.057  0.000  0.000  0.000  0.000  0.000  0.000  0.000  0.000  0.057
   26  0.006  0.000  0.000  0.000  0.000  0.000  0.000  0.000  0.000  0.006
   27  0.029  0.000  0.000  0.000  0.000  0.000  0.000  0.000  0.000  0.029
   28  0.030  0.000  0.000  0.000  0.000  0.000  0.000  0.000  0.000  0.030
   29  0.002  0.000  0.000  0.000  0.000  0.000  0.000  0.000  0.000  0.002
   30  0.008  0.000  0.000  0.000  0.000  0.000  0.000  0.000  0.000  0.009
   31  0.008  0.000  0.000  0.000  0.000  0.000  0.000  0.000  0.000  0.008
tot    0.372  0.011  0.009  0.011  0.095  0.053  0.135  0.048  0.107  0.842

band     8 # energy  -10.55503520 # occ.  1.00000000

ion      s     py     pz     px    dxy    dyz    dz2    dxz  x2-y2    tot
    1  0.001  0.001  0.000  0.001  0.010  0.008  0.008  0.006  0.015  0.051
    2  0.005  0.000  0.000  0.001  0.010  0.001  0.001  0.004  0.002  0.024
    3  0.001  0.001  0.000  0.000  0.000  0.003  0.003  0.000  0.006  0.015
    4  0.001  0.001  0.000  0.001  0.006  0.004  0.005  0.002  0.009  0.028
    5  0.001  0.000  0.002  0.001  0.007  0.001  0.024  0.004  0.002  0.043
    6  0.001  0.000  0.001  0.002  0.020  0.000  0.013  0.008  0.000  0.045
    7  0.002  0.001  0.002  0.001  0.007  0.003  0.023  0.003  0.006  0.048
    8  0.003  0.000  0.000  0.001  0.006  0.000  0.003  0.003  0.001  0.016
    9  0.002  0.000  0.001  0.001  0.013  0.001  0.025  0.006  0.001  0.050
   10  0.000  0.000  0.000  0.000  0.000  0.001  0.002  0.000  0.001  0.005
   11  0.000  0.000  0.002  0.002  0.015  0.001  0.024  0.007  0.001  0.051
   12  0.001  0.000  0.000  0.001  0.007  0.001  0.006  0.004  0.004  0.025
   13  0.000  0.002  0.001  0.000  0.004  0.007  0.018  0.002  0.015  0.049
   14  0.003  0.000  0.000  0.000  0.000  0.001  0.001  0.000  0.003  0.009
   15  0.003  0.001  0.001  0.001  0.010  0.005  0.018  0.005  0.009  0.053
   16  0.005  0.000  0.000  0.000  0.000  0.000  0.000  0.000  0.000  0.005
   17  0.007  0.000  0.000  0.000  0.000  0.000  0.000  0.000  0.000  0.007
   18  0.009  0.000  0.000  0.000  0.000  0.000  0.000  0.000  0.000  0.009
   19  0.001  0.000  0.000  0.000  0.000  0.000  0.000  0.000  0.000  0.001
   20  0.008  0.000  0.000  0.000  0.000  0.000  0.000  0.000  0.000  0.008
   21  0.030  0.000  0.000  0.000  0.000  0.000  0.000  0.000  0.000  0.030
   22  0.039  0.000  0.000  0.000  0.000  0.000  0.000  0.000  0.000  0.039
   23  0.055  0.000  0.000  0.000  0.000  0.000  0.000  0.000  0.000  0.055
   24  0.000  0.000  0.000  0.000  0.000  0.000  0.000  0.000  0.000  0.000
   25  0.057  0.000  0.000  0.000  0.000  0.000  0.000  0.000  0.000  0.057
   26  0.001  0.000  0.000  0.000  0.000  0.000  0.000  0.000  0.000  0.001
   27  0.052  0.000  0.000  0.000  0.000  0.000  0.000  0.000  0.000  0.052
   28  0.012  0.000  0.000  0.000  0.000  0.000  0.000  0.000  0.000  0.012
   29  0.031  0.000  0.000  0.000  0.000  0.000  0.000  0.000  0.000  0.031
   30  0.001  0.000  0.000  0.000  0.000  0.000  0.000  0.000  0.000  0.001
   31  0.027  0.000  0.000  0.000  0.000  0.000  0.000  0.000  0.000  0.027
tot    0.360  0.008  0.012  0.012  0.116  0.037  0.174  0.056  0.075  0.849

band     9 # energy  -10.53939550 # occ.  1.00000000

ion      s     py     pz     px    dxy    dyz    dz2    dxz  x2-y2    tot
    1  0.000  0.001  0.000  0.000  0.006  0.003  0.008  0.002  0.006  0.028
    2  0.001  0.001  0.003  0.001  0.011  0.002  0.035  0.005  0.004  0.063
    3  0.001  0.000  0.001  0.000  0.000  0.000  0.006  0.000  0.002  0.011
    4  0.002  0.001  0.000  0.000  0.001  0.003  0.002  0.000  0.007  0.015
    5  0.001  0.004  0.000  0.000  0.000  0.021  0.001  0.000  0.042  0.070
    6  0.006  0.001  0.001  0.001  0.005  0.003  0.018  0.002  0.006  0.045
    7  0.000  0.000  0.000  0.000  0.002  0.001  0.002  0.002  0.001  0.009
    8  0.001  0.001  0.000  0.000  0.001  0.001  0.000  0.001  0.004  0.008
    9  0.002  0.002  0.001  0.000  0.003  0.011  0.017  0.001  0.026  0.063
   10  0.005  0.001  0.000  0.000  0.003  0.003  0.003  0.001  0.005  0.022
   11  0.000  0.001  0.001  0.000  0.004  0.003  0.008  0.002  0.007  0.025
   12  0.001  0.000  0.000  0.000  0.003  0.002  0.008  0.001  0.005  0.022
   13  0.003  0.000  0.003  0.003  0.025  0.001  0.047  0.013  0.002  0.097
   14  0.006  0.000  0.001  0.000  0.000  0.001  0.007  0.001  0.001  0.017
   15  0.000  0.000  0.000  0.000  0.004  0.001  0.004  0.002  0.002  0.013
   16  0.010  0.000  0.000  0.000  0.000  0.000  0.000  0.000  0.000  0.010
   17  0.014  0.000  0.000  0.000  0.000  0.000  0.000  0.000  0.000  0.014
   18  0.063  0.000  0.000  0.000  0.000  0.000  0.000  0.000  0.000  0.063
   19  0.026  0.000  0.000  0.000  0.000  0.000  0.000  0.000  0.000  0.026
   20  0.012  0.000  0.000  0.000  0.000  0.000  0.000  0.000  0.000  0.012
   21  0.001  0.000  0.000  0.000  0.000  0.000  0.000  0.000  0.000  0.001
   22  0.047  0.000  0.000  0.000  0.000  0.000  0.000  0.000  0.000  0.047
   23  0.003  0.000  0.000  0.000  0.000  0.000  0.000  0.000  0.000  0.003
   24  0.003  0.000  0.000  0.000  0.000  0.000  0.000  0.000  0.000  0.003
   25  0.012  0.000  0.000  0.000  0.000  0.000  0.000  0.000  0.000  0.012
   26  0.001  0.000  0.000  0.000  0.000  0.000  0.000  0.000  0.000  0.001
   27  0.012  0.000  0.000  0.000  0.000  0.000  0.000  0.000  0.000  0.012
   28  0.018  0.000  0.000  0.000  0.000  0.000  0.000  0.000  0.000  0.018
   29  0.107  0.000  0.000  0.000  0.000  0.000  0.000  0.000  0.000  0.107
   30  0.001  0.000  0.000  0.000  0.000  0.000  0.000  0.000  0.000  0.001
   31  0.008  0.000  0.000  0.000  0.000  0.000  0.000  0.000  0.000  0.008
tot    0.366  0.013  0.011  0.007  0.069  0.058  0.168  0.035  0.120  0.846

band    10 # energy  -10.51800600 # occ.  1.00000000

ion      s     py     pz     px    dxy    dyz    dz2    dxz  x2-y2    tot
    1  0.001  0.000  0.000  0.000  0.004  0.002  0.001  0.002  0.004  0.013
    2  0.000  0.000  0.000  0.000  0.003  0.001  0.001  0.001  0.001  0.006
    3  0.004  0.001  0.000  0.000  0.000  0.002  0.001  0.000  0.006  0.013
    4  0.003  0.000  0.003  0.001  0.006  0.001  0.046  0.003  0.003  0.067
    5  0.000  0.000  0.000  0.001  0.007  0.001  0.003  0.004  0.003  0.019
    6  0.000  0.000  0.000  0.000  0.001  0.001  0.004  0.000  0.001  0.007
    7  0.000  0.001  0.003  0.001  0.005  0.004  0.041  0.003  0.011  0.069
    8  0.000  0.000  0.000  0.005  0.040  0.000  0.001  0.019  0.000  0.065
    9  0.000  0.000  0.000  0.000  0.004  0.000  0.001  0.002  0.000  0.007
   10  0.001  0.000  0.000  0.000  0.000  0.000  0.001  0.000  0.000  0.003
   11  0.004  0.001  0.002  0.003  0.032  0.007  0.034  0.015  0.012  0.110
   12  0.002  0.003  0.000  0.000  0.002  0.017  0.008  0.001  0.033  0.065
   13  0.001  0.000  0.000  0.000  0.001  0.003  0.001  0.001  0.006  0.014
   14  0.000  0.000  0.000  0.000  0.000  0.001  0.001  0.000  0.002  0.005
   15  0.000  0.002  0.001  0.000  0.003  0.013  0.017  0.001  0.028  0.066
   16  0.000  0.000  0.000  0.000  0.000  0.000  0.000  0.000  0.000  0.000
   17  0.000  0.000  0.000  0.000  0.000  0.000  0.000  0.000  0.000  0.000
   18  0.004  0.000  0.000  0.000  0.000  0.000  0.000  0.000  0.000  0.004
   19  0.004  0.000  0.000  0.000  0.000  0.000  0.000  0.000  0.000  0.004
   20  0.113  0.000  0.000  0.000  0.000  0.000  0.000  0.000  0.000  0.113
   21  0.011  0.000  0.000  0.000  0.000  0.000  0.000  0.000  0.000  0.011
   22  0.010  0.000  0.000  0.000  0.000  0.000  0.000  0.000  0.000  0.010
   23  0.093  0.000  0.000  0.000  0.000  0.000  0.000  0.000  0.000  0.093
   24  0.002  0.000  0.000  0.000  0.000  0.000  0.000  0.000  0.000  0.002
   25  0.002  0.000  0.000  0.000  0.000  0.000  0.000  0.000  0.000  0.002
   26  0.003  0.000  0.000  0.000  0.000  0.000  0.000  0.000  0.000  0.003
   27  0.053  0.000  0.000  0.000  0.000  0.000  0.000  0.000  0.000  0.053
   28  0.007  0.000  0.000  0.000  0.000  0.000  0.000  0.000  0.000  0.007
   29  0.006  0.000  0.000  0.000  0.000  0.000  0.000  0.000  0.000  0.006
   30  0.001  0.000  0.000  0.000  0.000  0.000  0.000  0.000  0.000  0.001
   31  0.018  0.000  0.000  0.000  0.000  0.000  0.000  0.000  0.000  0.018
tot    0.343  0.010  0.011  0.012  0.107  0.053  0.161  0.052  0.109  0.858

band    11 # energy  -10.49240113 # occ.  1.00000000

ion      s     py     pz     px    dxy    dyz    dz2    dxz  x2-y2    tot
    1  0.001  0.001  0.000  0.000  0.002  0.009  0.002  0.001  0.019  0.036
    2  0.001  0.000  0.002  0.003  0.026  0.002  0.028  0.012  0.003  0.076
    3  0.000  0.000  0.001  0.000  0.000  0.001  0.005  0.000  0.002  0.011
    4  0.000  0.000  0.000  0.000  0.002  0.002  0.000  0.001  0.005  0.010
    5  0.001  0.002  0.000  0.000  0.002  0.009  0.005  0.001  0.018  0.037
    6  0.001  0.000  0.002  0.003  0.027  0.002  0.027  0.012  0.002  0.076
    7  0.001  0.000  0.000  0.000  0.002  0.000  0.004  0.001  0.001  0.008
    8  0.000  0.000  0.000  0.000  0.001  0.000  0.000  0.000  0.000  0.002
    9  0.001  0.000  0.002  0.003  0.036  0.002  0.040  0.018  0.005  0.108
   10  0.004  0.001  0.000  0.000  0.002  0.003  0.002  0.001  0.007  0.020
   11  0.000  0.000  0.001  0.000  0.001  0.001  0.011  0.000  0.002  0.017
   12  0.000  0.000  0.000  0.000  0.001  0.000  0.003  0.000  0.000  0.005
   13  0.001  0.000  0.002  0.004  0.044  0.000  0.028  0.024  0.000  0.103
   14  0.003  0.001  0.000  0.000  0.002  0.005  0.001  0.001  0.010  0.023
   15  0.000  0.000  0.000  0.000  0.000  0.001  0.000  0.000  0.002  0.005
   16  0.000  0.000  0.000  0.000  0.000  0.000  0.000  0.000  0.000  0.000
   17  0.000  0.000  0.000  0.000  0.000  0.000  0.000  0.000  0.000  0.000
   18  0.074  0.000  0.000  0.000  0.000  0.000  0.000  0.000  0.000  0.074
   19  0.016  0.000  0.000  0.000  0.000  0.000  0.000  0.000  0.000  0.016
   20  0.000  0.000  0.000  0.000  0.000  0.000  0.000  0.000  0.000  0.000
   21  0.002  0.000  0.000  0.000  0.000  0.000  0.000  0.000  0.000  0.002
   22  0.073  0.000  0.000  0.000  0.000  0.000  0.000  0.000  0.000  0.073
   23  0.004  0.000  0.000  0.000  0.000  0.000  0.000  0.000  0.000  0.004
   24  0.001  0.000  0.000  0.000  0.000  0.000  0.000  0.000  0.000  0.001
   25  0.063  0.000  0.000  0.000  0.000  0.000  0.000  0.000  0.000  0.063
   26  0.001  0.000  0.000  0.000  0.000  0.000  0.000  0.000  0.000  0.001
   27  0.015  0.000  0.000  0.000  0.000  0.000  0.000  0.000  0.000  0.015
   28  0.006  0.000  0.000  0.000  0.000  0.000  0.000  0.000  0.000  0.006
   29  0.063  0.000  0.000  0.000  0.000  0.000  0.000  0.000  0.000  0.063
   30  0.001  0.000  0.000  0.000  0.000  0.000  0.000  0.000  0.000  0.001
   31  0.001  0.000  0.000  0.000  0.000  0.000  0.000  0.000  0.000  0.001
tot    0.338  0.008  0.010  0.014  0.147  0.038  0.156  0.072  0.076  0.859

band    12 # energy  -10.44718753 # occ.  1.00000000

ion      s     py     pz     px    dxy    dyz    dz2    dxz  x2-y2    tot
    1  0.000  0.000  0.000  0.000  0.001  0.000  0.001  0.000  0.000  0.002
    2  0.001  0.000  0.002  0.000  0.000  0.000  0.022  0.001  0.000  0.026
    3  0.005  0.002  0.003  0.000  0.000  0.008  0.040  0.000  0.006  0.064
    4  0.002  0.000  0.000  0.000  0.003  0.002  0.001  0.001  0.007  0.017
    5  0.000  0.000  0.000  0.000  0.000  0.003  0.000  0.000  0.005  0.009
    6  0.000  0.000  0.002  0.000  0.001  0.000  0.023  0.001  0.000  0.028
    7  0.002  0.000  0.000  0.000  0.003  0.003  0.000  0.001  0.007  0.017
    8  0.000  0.000  0.000  0.000  0.001  0.000  0.003  0.000  0.002  0.006
    9  0.002  0.000  0.000  0.002  0.023  0.003  0.003  0.013  0.008  0.055
   10  0.003  0.004  0.000  0.001  0.011  0.015  0.002  0.005  0.028  0.068
   11  0.002  0.004  0.002  0.000  0.000  0.020  0.027  0.000  0.040  0.095
   12  0.000  0.000  0.000  0.000  0.000  0.000  0.002  0.000  0.000  0.002
   13  0.003  0.001  0.001  0.000  0.001  0.007  0.020  0.001  0.018  0.053
   14  0.004  0.003  0.000  0.002  0.011  0.014  0.000  0.005  0.026  0.065
   15  0.000  0.000  0.000  0.000  0.000  0.001  0.002  0.000  0.001  0.004
   16  0.008  0.000  0.000  0.000  0.000  0.000  0.000  0.000  0.000  0.008
   17  0.001  0.000  0.000  0.000  0.000  0.000  0.000  0.000  0.000  0.001
   18  0.054  0.000  0.000  0.000  0.000  0.000  0.000  0.000  0.000  0.054
   19  0.151  0.000  0.000  0.000  0.000  0.000  0.000  0.000  0.000  0.151
   20  0.001  0.000  0.000  0.000  0.000  0.000  0.000  0.000  0.000  0.001