PROCAR lm decomposed
# of k-points:    2         # of bands:  216         # of ions:   31

 k-point     1 :    0.25000000 0.25000000 0.25000000     weight = 1.00000000

band     1 # energy  -11.17133671 # occ.  1.00000000

ion      s     py     pz     px    dxy    dyz    dz2    dxz  x2-y2    tot
    1  0.015  0.000  0.001  0.000  0.002  0.000  0.002  0.001  0.000  0.021
    2  0.010  0.000  0.000  0.000  0.001  0.000  0.001  0.000  0.000  0.014
    3  0.009  0.000  0.000  0.000  0.000  0.000  0.001  0.000  0.002  0.013
    4  0.014  0.000  0.001  0.001  0.001  0.000  0.002  0.001  0.000  0.020
    5  0.017  0.000  0.001  0.000  0.001  0.000  0.003  0.001  0.000  0.023
    6  0.009  0.000  0.000  0.000  0.001  0.000  0.001  0.001  0.001  0.013
    7  0.015  0.000  0.001  0.000  0.001  0.000  0.002  0.001  0.000  0.020
    8  0.011  0.000  0.000  0.000  0.001  0.001  0.001  0.001  0.001  0.015
    9  0.010  0.000  0.000  0.000  0.001  0.000  0.002  0.000  0.000  0.014
   10  0.007  0.000  0.000  0.000  0.000  0.000  0.002  0.000  0.000  0.011
   11  0.012  0.000  0.000  0.000  0.001  0.000  0.002  0.000  0.000  0.017
   12  0.015  0.000  0.001  0.000  0.001  0.000  0.002  0.001  0.000  0.021
   13  0.012  0.000  0.000  0.000  0.001  0.000  0.002  0.000  0.000  0.016
   14  0.007  0.000  0.000  0.000  0.001  0.000  0.001  0.001  0.000  0.010
   15  0.015  0.000  0.001  0.000  0.001  0.000  0.003  0.001  0.000  0.021
   16  0.014  0.000  0.000  0.000  0.000  0.000  0.000  0.000  0.000  0.014
   17  0.032  0.000  0.000  0.000  0.000  0.000  0.000  0.000  0.000  0.032
   18  0.022  0.000  0.000  0.000  0.000  0.000  0.000  0.000  0.000  0.022
   19  0.020  0.000  0.000  0.000  0.000  0.000  0.000  0.000  0.000  0.020
   20  0.032  0.000  0.000  0.000  0.000  0.000  0.000  0.000  0.000  0.032
   21  0.038  0.000  0.000  0.000  0.000  0.000  0.000  0.000  0.000  0.038
   22  0.021  0.000  0.000  0.000  0.000  0.000  0.000  0.000  0.000  0.021
   23  0.032  0.000  0.000  0.000  0.000  0.000  0.000  0.000  0.000  0.032
   24  0.027  0.000  0.000  0.000  0.000  0.000  0.000  0.000  0.000  0.027
   25  0.027  0.000  0.000  0.000  0.000  0.000  0.000  0.000  0.000  0.027
   26  0.015  0.000  0.000  0.000  0.000  0.000  0.000  0.000  0.000  0.015
   27  0.035  0.000  0.000  0.000  0.000  0.000  0.000  0.000  0.000  0.035
   28  0.044  0.000  0.000  0.000  0.000  0.000  0.000  0.000  0.000  0.044
   29  0.033  0.000  0.000  0.000  0.000  0.000  0.000  0.000  0.000  0.033
   30  0.014  0.000  0.000  0.000  0.000  0.000  0.000  0.000  0.000  0.014
   31  0.045  0.000  0.000  0.000  0.000  0.000  0.000  0.000  0.000  0.045
tot    0.627  0.002  0.007  0.005  0.014  0.003  0.027  0.008  0.006  0.699

band     2 # energy  -10.94779926 # occ.  1.00000000

ion      s     py     pz     px    dxy    dyz    dz2    dxz  x2-y2    tot
    1  0.005  0.001  0.000  0.000  0.001  0.002  0.001  0.000  0.004  0.015
    2  0.011  0.000  0.000  0.001  0.001  0.001  0.003  0.001  0.002  0.020
    3  0.013  0.001  0.001  0.000  0.000  0.003  0.003  0.000  0.004  0.026
    4  0.012  0.001  0.000  0.000  0.001  0.001  0.002  0.000  0.005  0.022
    5  0.005  0.001  0.000  0.000  0.001  0.003  0.001  0.001  0.005  0.018
    6  0.014  0.000  0.001  0.000  0.002  0.001  0.003  0.000  0.001  0.022
    7  0.008  0.001  0.000  0.001  0.003  0.001  0.001  0.002  0.004  0.022
    8  0.009  0.001  0.000  0.000  0.001  0.000  0.005  0.001  0.002  0.018
    9  0.009  0.001  0.000  0.000  0.002  0.001  0.002  0.001  0.003  0.019
   10  0.012  0.000  0.000  0.000  0.001  0.002  0.002  0.000  0.002  0.019
   11  0.012  0.001  0.001  0.000  0.001  0.001  0.003  0.001  0.003  0.023
   12  0.005  0.001  0.000  0.000  0.001  0.002  0.001  0.000  0.004  0.015
   13  0.010  0.001  0.000  0.000  0.001  0.001  0.002  0.000  0.003  0.019
   14  0.013  0.001  0.000  0.000  0.002  0.001  0.000  0.001  0.002  0.020
   15  0.004  0.001  0.000  0.000  0.001  0.002  0.001  0.000  0.004  0.013
   16  0.023  0.000  0.000  0.000  0.000  0.000  0.000  0.000  0.000  0.023
   17  0.013  0.000  0.000  0.000  0.000  0.000  0.000  0.000  0.000  0.013
   18  0.030  0.000  0.000  0.000  0.000  0.000  0.000  0.000  0.000  0.030
   19  0.041  0.000  0.000  0.000  0.000  0.000  0.000  0.000  0.000  0.041
   20  0.031  0.000  0.000  0.000  0.000  0.000  0.000  0.000  0.000  0.031
   21  0.014  0.000  0.000  0.000  0.000  0.000  0.000  0.000  0.000  0.014
   22  0.035  0.000  0.000  0.000  0.000  0.000  0.000  0.000  0.000  0.035
   23  0.023  0.000  0.000  0.000  0.000  0.000  0.000  0.000  0.000  0.024
   24  0.025  0.000  0.000  0.000  0.000  0.000  0.000  0.000  0.000  0.025
   25  0.030  0.000  0.000  0.000  0.000  0.000  0.000  0.000  0.000  0.030
   26  0.026  0.000  0.000  0.000  0.000  0.000  0.000  0.000  0.000  0.027
   27  0.044  0.000  0.000  0.000  0.000  0.000  0.000  0.000  0.000  0.044
   28  0.019  0.000  0.000  0.000  0.000  0.000  0.000  0.000  0.000  0.019
   29  0.037  0.000  0.000  0.000  0.000  0.000  0.000  0.000  0.000  0.037
   30  0.033  0.000  0.000  0.000  0.000  0.000  0.000  0.000  0.000  0.033
   31  0.018  0.000  0.000  0.000  0.000  0.000  0.000  0.000  0.000  0.018
tot    0.581  0.011  0.006  0.005  0.019  0.023  0.032  0.009  0.047  0.732

band     3 # energy  -10.70725296 # occ.  1.00000000

ion      s     py     pz     px    dxy    dyz    dz2    dxz  x2-y2    tot
    1  0.011  0.001  0.000  0.001  0.005  0.002  0.003  0.002  0.003  0.028
    2  0.006  0.001  0.000  0.000  0.000  0.002  0.002  0.001  0.004  0.017
    3  0.010  0.001  0.000  0.000  0.000  0.003  0.004  0.000  0.005  0.023
    4  0.001  0.001  0.000  0.003  0.012  0.005  0.000  0.010  0.011  0.043
    5  0.002  0.001  0.000  0.003  0.017  0.003  0.001  0.008  0.008  0.042
    6  0.001  0.001  0.000  0.001  0.006  0.002  0.000  0.004  0.004  0.019
    7  0.014  0.001  0.001  0.001  0.004  0.001  0.007  0.003  0.003  0.034
    8  0.005  0.000  0.000  0.001  0.006  0.000  0.003  0.003  0.001  0.020
    9  0.003  0.001  0.000  0.000  0.003  0.003  0.002  0.001  0.007  0.021
   10  0.003  0.001  0.000  0.001  0.004  0.002  0.002  0.002  0.004  0.019
   11  0.007  0.001  0.001  0.001  0.009  0.003  0.005  0.004  0.006  0.036
   12  0.007  0.000  0.001  0.000  0.002  0.000  0.008  0.001  0.001  0.021
   13  0.005  0.000  0.000  0.000  0.001  0.000  0.003  0.001  0.000  0.012
   14  0.003  0.000  0.000  0.001  0.003  0.001  0.002  0.001  0.001  0.012
   15  0.005  0.001  0.000  0.001  0.007  0.005  0.003  0.003  0.011  0.037
   16  0.000  0.000  0.000  0.000  0.000  0.000  0.000  0.000  0.000  0.000
   17  0.036  0.000  0.000  0.000  0.000  0.000  0.000  0.000  0.000  0.036
   18  0.024  0.000  0.000  0.000  0.000  0.000  0.000  0.000  0.000  0.024
   19  0.037  0.000  0.000  0.000  0.000  0.000  0.000  0.000  0.000  0.037
   20  0.003  0.000  0.000  0.000  0.000  0.000  0.000  0.000  0.000  0.003
   21  0.007  0.000  0.000  0.000  0.000  0.000  0.000  0.000  0.000  0.007
   22  0.002  0.000  0.000  0.000  0.000  0.000  0.000  0.000  0.000  0.002
   23  0.058  0.000  0.000  0.000  0.000  0.000  0.000  0.000  0.000  0.058
   24  0.031  0.000  0.000  0.000  0.000  0.000  0.000  0.000  0.000  0.031
   25  0.015  0.000  0.000  0.000  0.000  0.000  0.000  0.000  0.000  0.015
   26  0.016  0.000  0.000  0.000  0.000  0.000  0.000  0.000  0.000  0.017
   27  0.044  0.000  0.000  0.000  0.000  0.000  0.000  0.000  0.000  0.044
   28  0.055  0.000  0.000  0.000  0.000  0.000  0.000  0.000  0.000  0.055
   29  0.030  0.000  0.000  0.000  0.000  0.000  0.000  0.000  0.000  0.030
   30  0.014  0.000  0.000  0.000  0.000  0.000  0.000  0.000  0.000  0.014
   31  0.031  0.000  0.000  0.000  0.000  0.000  0.000  0.000  0.000  0.031
tot    0.485  0.011  0.005  0.014  0.081  0.032  0.045  0.046  0.068  0.787

band     4 # energy  -10.68485520 # occ.  1.00000000

ion      s     py     pz     px    dxy    dyz    dz2    dxz  x2-y2    tot
    1  0.001  0.001  0.000  0.003  0.018  0.004  0.001  0.009  0.010  0.048
    2  0.002  0.000  0.000  0.001  0.010  0.001  0.002  0.003  0.002  0.022
    3  0.001  0.001  0.000  0.000  0.001  0.003  0.005  0.000  0.004  0.014
    4  0.010  0.001  0.001  0.000  0.000  0.002  0.007  0.000  0.006  0.027
    5  0.016  0.000  0.000  0.001  0.004  0.001  0.004  0.002  0.003  0.031
    6  0.005  0.000  0.000  0.000  0.003  0.001  0.001  0.001  0.003  0.015
    7  0.000  0.002  0.000  0.001  0.003  0.007  0.001  0.003  0.021  0.039
    8  0.007  0.001  0.000  0.001  0.005  0.001  0.001  0.002  0.007  0.025
    9  0.007  0.000  0.000  0.000  0.000  0.001  0.004  0.000  0.001  0.014
   10  0.008  0.000  0.000  0.000  0.002  0.000  0.003  0.000  0.001  0.016
   11  0.002  0.001  0.000  0.001  0.006  0.002  0.004  0.003  0.003  0.022
   12  0.004  0.001  0.001  0.002  0.011  0.003  0.007  0.005  0.008  0.042
   13  0.001  0.002  0.000  0.001  0.005  0.006  0.003  0.002  0.014  0.034
   14  0.005  0.001  0.000  0.001  0.004  0.002  0.003  0.001  0.005  0.020
   15  0.007  0.000  0.001  0.001  0.004  0.001  0.010  0.002  0.002  0.028
   16  0.043  0.000  0.000  0.000  0.000  0.000  0.000  0.000  0.000  0.043
   17  0.009  0.000  0.000  0.000  0.000  0.000  0.000  0.000  0.000  0.009
   18  0.018  0.000  0.000  0.000  0.000  0.000  0.000  0.000  0.000  0.018
   19  0.014  0.000  0.000  0.000  0.000  0.000  0.000  0.000  0.000  0.014
   20  0.031  0.000  0.000  0.000  0.000  0.000  0.000  0.000  0.000  0.031
   21  0.053  0.000  0.000  0.000  0.000  0.000  0.000  0.000  0.000  0.053
   22  0.023  0.000  0.000  0.000  0.000  0.000  0.000  0.000  0.000  0.023
   23  0.005  0.000  0.000  0.000  0.000  0.000  0.000  0.000  0.000  0.005
   24  0.023  0.000  0.000  0.000  0.000  0.000  0.000  0.000  0.000  0.023
   25  0.031  0.000  0.000  0.000  0.000  0.000  0.000  0.000  0.000  0.031
   26  0.008  0.000  0.000  0.000  0.000  0.000  0.000  0.000  0.000  0.008
   27  0.025  0.000  0.000  0.000  0.000  0.000  0.000  0.000  0.000  0.025
   28  0.045  0.000  0.000  0.000  0.000  0.000  0.000  0.000  0.000  0.045
   29  0.014  0.000  0.000  0.000  0.000  0.000  0.000  0.000  0.000  0.014
   30  0.002  0.000  0.000  0.000  0.000  0.000  0.000  0.000  0.000  0.002
   31  0.053  0.000  0.000  0.000  0.000  0.000  0.000  0.000  0.000  0.053
tot    0.472  0.012  0.006  0.011  0.077  0.035  0.058  0.035  0.089  0.795

band     5 # energy  -10.63093470 # occ.  1.00000000

ion      s     py     pz     px    dxy    dyz    dz2    dxz  x2-y2    tot
    1  0.006  0.000  0.001  0.000  0.003  0.001  0.009  0.001  0.001  0.023
    2  0.006  0.000  0.000  0.000  0.006  0.000  0.003  0.001  0.000  0.017
    3  0.007  0.000  0.000  0.000  0.002  0.001  0.004  0.001  0.007  0.021
    4  0.001  0.000  0.002  0.001  0.007  0.001  0.023  0.003  0.002  0.039
    5  0.000  0.000  0.002  0.001  0.005  0.002  0.025  0.003  0.003  0.042
    6  0.000  0.000  0.001  0.001  0.006  0.001  0.011  0.003  0.002  0.026
    7  0.006  0.000  0.001  0.001  0.007  0.001  0.012  0.003  0.001  0.031
    8  0.009  0.000  0.001  0.000  0.002  0.000  0.016  0.000  0.003  0.031
    9  0.002  0.000  0.001  0.001  0.003  0.000  0.012  0.002  0.000  0.021
   10  0.002  0.000  0.001  0.001  0.010  0.000  0.009  0.002  0.003  0.029
   11  0.001  0.000  0.002  0.001  0.004  0.002  0.026  0.002  0.003  0.041
   12  0.006  0.000  0.001  0.001  0.007  0.000  0.012  0.003  0.001  0.030
   13  0.004  0.001  0.001  0.000  0.003  0.002  0.009  0.001  0.005  0.025
   14  0.005  0.000  0.001  0.001  0.005  0.000  0.014  0.000  0.000  0.026
   15  0.004  0.000  0.001  0.001  0.006  0.001  0.017  0.003  0.002  0.036
   16  0.057  0.000  0.000  0.000  0.000  0.000  0.000  0.000  0.000  0.058
   17  0.001  0.000  0.000  0.000  0.000  0.000  0.000  0.000  0.000  0.001
   18  0.001  0.000  0.000  0.000  0.000  0.000  0.000  0.000  0.000  0.001
   19  0.004  0.000  0.000  0.000  0.000  0.000  0.000  0.000  0.000  0.005
   20  0.044  0.000  0.000  0.000  0.000  0.000  0.000  0.000  0.000  0.044
   21  0.061  0.000  0.000  0.000  0.000  0.000  0.000  0.000  0.000  0.061
   22  0.022  0.000  0.000  0.000  0.000  0.000  0.000  0.000  0.000  0.022
   23  0.012  0.000  0.000  0.000  0.000  0.000  0.000  0.000  0.000  0.012
   24  0.001  0.000  0.000  0.000  0.000  0.000  0.000  0.000  0.000  0.001
   25  0.046  0.000  0.000  0.000  0.000  0.000  0.000  0.000  0.000  0.046
   26  0.021  0.000  0.000  0.000  0.000  0.000  0.000  0.000  0.000  0.021
   27  0.059  0.000  0.000  0.000  0.000  0.000  0.000  0.000  0.000  0.059
   28  0.003  0.000  0.000  0.000  0.000  0.000  0.000  0.000  0.000  0.003
   29  0.004  0.000  0.000  0.000  0.000  0.000  0.000  0.000  0.000  0.004
   30  0.002  0.000  0.000  0.000  0.000  0.000  0.000  0.000  0.000  0.002
   31  0.040  0.000  0.000  0.000  0.000  0.000  0.000  0.000  0.000  0.040
tot    0.436  0.004  0.016  0.009  0.074  0.012  0.203  0.029  0.033  0.816

band     6 # energy  -10.59975035 # occ.  1.00000000

ion      s     py     pz     px    dxy    dyz    dz2    dxz  x2-y2    tot
    1  0.001  0.001  0.002  0.000  0.002  0.004  0.023  0.001  0.009  0.042
    2  0.000  0.000  0.001  0.002  0.013  0.000  0.011  0.007  0.001  0.036
    3  0.000  0.001  0.000  0.000  0.003  0.004  0.003  0.001  0.003  0.016
    4  0.010  0.000  0.000  0.001  0.002  0.001  0.000  0.004  0.003  0.020
    5  0.002  0.001  0.001  0.001  0.007  0.004  0.015  0.003  0.008  0.041
    6  0.011  0.000  0.000  0.001  0.006  0.000  0.000  0.004  0.000  0.023
    7  0.000  0.000  0.001  0.002  0.009  0.001  0.010  0.009  0.005  0.037
    8  0.002  0.000  0.001  0.001  0.007  0.002  0.011  0.004  0.002  0.030
    9  0.007  0.001  0.001  0.001  0.007  0.003  0.010  0.003  0.006  0.037
   10  0.002  0.000  0.000  0.001  0.003  0.001  0.001  0.000  0.003  0.011
   11  0.002  0.000  0.001  0.000  0.003  0.000  0.008  0.002  0.001  0.017
   12  0.002  0.002  0.001  0.000  0.002  0.006  0.014  0.001  0.013  0.041
   13  0.002  0.000  0.001  0.002  0.012  0.001  0.016  0.006  0.003  0.044
   14  0.003  0.001  0.000  0.001  0.003  0.003  0.004  0.001  0.004  0.017
   15  0.008  0.000  0.000  0.001  0.010  0.000  0.002  0.004  0.000  0.027
   16  0.006  0.000  0.000  0.000  0.000  0.000  0.000  0.000  0.000  0.006
   17  0.068  0.000  0.000  0.000  0.000  0.000  0.000  0.000  0.000  0.068
   18  0.025  0.000  0.000  0.000  0.000  0.000  0.000  0.000  0.000  0.025
   19  0.010  0.000  0.000  0.000  0.000  0.000  0.000  0.000  0.000  0.010
   20  0.015  0.000  0.000  0.000  0.000  0.000  0.000  0.000  0.000  0.015
   21  0.015  0.000  0.000  0.000  0.000  0.000  0.000  0.000  0.000  0.015
   22  0.027  0.000  0.000  0.000  0.000  0.000  0.000  0.000  0.000  0.027
   23  0.022  0.000  0.000  0.000  0.000  0.000  0.000  0.000  0.000  0.022
   24  0.048  0.000  0.000  0.000  0.000  0.000  0.000  0.000  0.000  0.049
   25  0.017  0.000  0.000  0.000  0.000  0.000  0.000  0.000  0.000  0.017
   26  0.004  0.000  0.000  0.000  0.000  0.000  0.000  0.000  0.000  0.004
   27  0.012  0.000  0.000  0.000  0.000  0.000  0.000  0.000  0.000  0.012
   28  0.019  0.000  0.000  0.000  0.000  0.000  0.000  0.000  0.000  0.019
   29  0.060  0.000  0.000  0.000  0.000  0.000  0.000  0.000  0.000  0.060
   30  0.020  0.000  0.000  0.000  0.000  0.000  0.000  0.000  0.000  0.020
   31  0.008  0.000  0.000  0.000  0.000  0.000  0.000  0.000  0.000  0.008
tot    0.430  0.008  0.011  0.013  0.089  0.030  0.128  0.051  0.057  0.816

band     7 # energy  -10.55621759 # occ.  1.00000000

ion      s     py     pz     px    dxy    dyz    dz2    dxz  x2-y2    tot
    1  0.003  0.002  0.001  0.001  0.007  0.008  0.009  0.003  0.016  0.049
    2  0.002  0.001  0.001  0.000  0.003  0.003  0.011  0.002  0.006  0.029
    3  0.000  0.000  0.001  0.000  0.000  0.001  0.012  0.000  0.002  0.016
    4  0.002  0.001  0.001  0.000  0.000  0.005  0.010  0.000  0.012  0.031
    5  0.005  0.002  0.001  0.000  0.001  0.009  0.011  0.000  0.017  0.046
    6  0.003  0.000  0.001  0.000  0.003  0.002  0.010  0.001  0.004  0.024
    7  0.002  0.001  0.001  0.000  0.002  0.006  0.008  0.001  0.012  0.032
    8  0.001  0.003  0.001  0.000  0.001  0.005  0.011  0.001  0.024  0.047
    9  0.002  0.000  0.001  0.000  0.002  0.000  0.014  0.001  0.000  0.021
   10  0.008  0.001  0.000  0.000  0.005  0.001  0.007  0.001  0.004  0.026
   11  0.001  0.001  0.001  0.000  0.003  0.007  0.008  0.001  0.012  0.034
   12  0.001  0.001  0.001  0.000  0.002  0.004  0.017  0.001  0.006  0.033
   13  0.003  0.000  0.001  0.000  0.000  0.000  0.012  0.000  0.000  0.018
   14  0.004  0.001  0.000  0.001  0.004  0.002  0.009  0.001  0.009  0.030
   15  0.000  0.000  0.002  0.000  0.000  0.002  0.031  0.000  0.003  0.039
   16  0.059  0.000  0.000  0.000  0.000  0.000  0.000  0.000  0.000  0.059
   17  0.007  0.000  0.000  0.000  0.000  0.000  0.000  0.000  0.000  0.007
   18  0.010  0.000  0.000  0.000  0.000  0.000  0.000  0.000  0.000  0.010
   19  0.030  0.000  0.000  0.000  0.000  0.000  0.000  0.000  0.000  0.030
   20  0.033  0.000  0.000  0.000  0.000  0.000  0.000  0.000  0.000  0.033
   21  0.016  0.000  0.000  0.000  0.000  0.000  0.000  0.000  0.000  0.016
   22  0.005  0.000  0.000  0.000  0.000  0.000  0.000  0.000  0.000  0.005
   23  0.020  0.000  0.000  0.000  0.000  0.000  0.000  0.000  0.000  0.020
   24  0.008  0.000  0.000  0.000  0.000  0.000  0.000  0.000  0.000  0.008
   25  0.044  0.000  0.000  0.000  0.000  0.000  0.000  0.000  0.000  0.044
   26  0.002  0.000  0.000  0.000  0.000  0.000  0.000  0.000  0.000  0.002
   27  0.011  0.000  0.000  0.000  0.000  0.000  0.000  0.000  0.000  0.011
   28  0.027  0.000  0.000  0.000  0.000  0.000  0.000  0.000  0.000  0.028
   29  0.032  0.000  0.000  0.000  0.000  0.000  0.000  0.000  0.000  0.032
   30  0.002  0.000  0.000  0.000  0.000  0.000  0.000  0.000  0.000  0.002
   31  0.054  0.000  0.000  0.000  0.000  0.000  0.000  0.000  0.000  0.054
tot    0.397  0.014  0.013  0.004  0.033  0.054  0.179  0.014  0.127  0.836

band     8 # energy  -10.53820976 # occ.  1.00000000

ion      s     py     pz     px    dxy    dyz    dz2    dxz  x2-y2    tot
    1  0.002  0.001  0.001  0.002  0.017  0.003  0.008  0.008  0.007  0.048
    2  0.004  0.001  0.000  0.000  0.004  0.003  0.003  0.002  0.006  0.024
    3  0.006  0.000  0.000  0.000  0.002  0.000  0.005  0.001  0.000  0.015
    4  0.000  0.002  0.000  0.001  0.004  0.010  0.000  0.005  0.028  0.050
    5  0.001  0.002  0.000  0.002  0.016  0.008  0.006  0.008  0.016  0.058
    6  0.000  0.001  0.000  0.001  0.015  0.004  0.001  0.004  0.005  0.032
    7  0.003  0.000  0.001  0.001  0.006  0.000  0.007  0.007  0.002  0.028
    8  0.005  0.000  0.000  0.001  0.006  0.001  0.003  0.002  0.001  0.020
    9  0.000  0.001  0.000  0.001  0.006  0.005  0.004  0.003  0.011  0.032
   10  0.001  0.001  0.000  0.001  0.010  0.004  0.001  0.003  0.007  0.028
   11  0.000  0.002  0.000  0.000  0.003  0.007  0.002  0.001  0.015  0.031
   12  0.005  0.000  0.001  0.001  0.009  0.001  0.012  0.004  0.002  0.035
   13  0.003  0.000  0.001  0.001  0.007  0.001  0.011  0.003  0.001  0.029
   14  0.003  0.000  0.000  0.001  0.007  0.000  0.006  0.001  0.001  0.020
   15  0.000  0.002  0.000  0.000  0.001  0.008  0.006  0.001  0.018  0.037
   16  0.009  0.000  0.000  0.000  0.000  0.000  0.000  0.000  0.000  0.009
   17  0.028  0.000  0.000  0.000  0.000  0.000  0.000  0.000  0.000  0.028
   18  0.032  0.000  0.000  0.000  0.000  0.000  0.000  0.000  0.000  0.032
   19  0.036  0.000  0.000  0.000  0.000  0.000  0.000  0.000  0.000  0.036
   20  0.003  0.000  0.000  0.000  0.000  0.000  0.000  0.000  0.000  0.003
   21  0.017  0.000  0.000  0.000  0.000  0.000  0.000  0.000  0.000  0.017
   22  0.003  0.000  0.000  0.000  0.000  0.000  0.000  0.000  0.000  0.003
   23  0.029  0.000  0.000  0.000  0.000  0.000  0.000  0.000  0.000  0.029
   24  0.036  0.000  0.000  0.000  0.000  0.000  0.000  0.000  0.000  0.036
   25  0.015  0.000  0.000  0.000  0.000  0.000  0.000  0.000  0.000  0.015
   26  0.003  0.000  0.000  0.000  0.000  0.000  0.000  0.000  0.000  0.003
   27  0.004  0.000  0.000  0.000  0.000  0.000  0.000  0.000  0.000  0.004
   28  0.067  0.000  0.000  0.000  0.000  0.000  0.000  0.000  0.000  0.068
   29  0.037  0.000  0.000  0.000  0.000  0.000  0.000  0.000  0.000  0.037
   30  0.021  0.000  0.000  0.000  0.000  0.000  0.000  0.000  0.000  0.021
   31  0.012  0.000  0.000  0.000  0.000  0.000  0.000  0.000  0.000  0.012
tot    0.389  0.013  0.006  0.013  0.114  0.056  0.077  0.053  0.120  0.840

band     9 # energy  -10.49988614 # occ.  1.00000000

ion      s     py     pz     px    dxy    dyz    dz2    dxz  x2-y2    tot
    1  0.001  0.000  0.000  0.000  0.004  0.000  0.001  0.002  0.000  0.008
    2  0.001  0.001  0.000  0.000  0.000  0.003  0.001  0.001  0.005  0.012
    3  0.003  0.003  0.001  0.000  0.002  0.012  0.007  0.001  0.012  0.040
    4  0.000  0.000  0.002  0.002  0.015  0.001  0.028  0.011  0.001  0.061
    5  0.000  0.000  0.001  0.000  0.003  0.000  0.010  0.002  0.001  0.016
    6  0.002  0.000  0.002  0.000  0.001  0.000  0.023  0.000  0.001  0.028
    7  0.000  0.002  0.001  0.000  0.005  0.009  0.014  0.002  0.021  0.054
    8  0.000  0.001  0.001  0.001  0.009  0.005  0.006  0.005  0.019  0.047
    9  0.002  0.000  0.000  0.001  0.010  0.001  0.006  0.005  0.003  0.029
   10  0.004  0.000  0.001  0.000  0.005  0.001  0.006  0.003  0.002  0.022
   11  0.008  0.000  0.002  0.000  0.001  0.001  0.027  0.001  0.003  0.044
   12  0.000  0.002  0.000  0.000  0.002  0.009  0.001  0.001  0.018  0.033
   13  0.003  0.000  0.000  0.001  0.009  0.002  0.005  0.004  0.004  0.030
   14  0.001  0.001  0.001  0.001  0.013  0.006  0.004  0.003  0.014  0.045
   15  0.000  0.001  0.000  0.001  0.006  0.003  0.006  0.002  0.006  0.025
   16  0.029  0.000  0.000  0.000  0.000  0.000  0.000  0.000  0.000  0.029
   17  0.005  0.000  0.000  0.000  0.000  0.000  0.000  0.000  0.000  0.005
   18  0.000  0.000  0.000  0.000  0.000  0.000  0.000  0.000  0.000  0.000
   19  0.015  0.000  0.000  0.000  0.000  0.000  0.000  0.000  0.000  0.015
   20  0.054  0.000  0.000  0.000  0.000  0.000  0.000  0.000  0.000  0.054
   21  0.018  0.000  0.000  0.000  0.000  0.000  0.000  0.000  0.000  0.018
   22  0.069  0.000  0.000  0.000  0.000  0.000  0.000  0.000  0.000  0.069
   23  0.019  0.000  0.000  0.000  0.000  0.000  0.000  0.000  0.000  0.019
   24  0.016  0.000  0.000  0.000  0.000  0.000  0.000  0.000  0.000  0.016
   25  0.003  0.000  0.000  0.000  0.000  0.000  0.000  0.000  0.000  0.003
   26  0.029  0.000  0.000  0.000  0.000  0.000  0.000  0.000  0.000  0.029
   27  0.069  0.000  0.000  0.000  0.000  0.000  0.000  0.000  0.000  0.069
   28  0.001  0.000  0.000  0.000  0.000  0.000  0.000  0.000  0.000  0.001
   29  0.001  0.000  0.000  0.000  0.000  0.000  0.000  0.000  0.000  0.001
   30  0.006  0.000  0.000  0.000  0.000  0.000  0.000  0.000  0.000  0.006
   31  0.018  0.000  0.000  0.000  0.000  0.000  0.000  0.000  0.000  0.018
tot    0.376  0.013  0.012  0.009  0.083  0.056  0.146  0.041  0.111  0.846

band    10 # energy  -10.47773592 # occ.  1.00000000

ion      s     py     pz     px    dxy    dyz    dz2    dxz  x2-y2    tot
    1  0.000  0.000  0.002  0.002  0.021  0.000  0.027  0.011  0.000  0.064
    2  0.001  0.000  0.000  0.000  0.003  0.000  0.002  0.002  0.000  0.008
    3  0.000  0.000  0.000  0.000  0.001  0.001  0.002  0.001  0.001  0.007
    4  0.001  0.001  0.002  0.001  0.004  0.003  0.024  0.005  0.004  0.044
    5  0.001  0.000  0.002  0.002  0.019  0.000  0.024  0.011  0.001  0.058
    6  0.001  0.000  0.000  0.000  0.003  0.000  0.000  0.001  0.000  0.006
    7  0.002  0.001  0.001  0.001  0.003  0.003  0.023  0.004  0.008  0.046
    8  0.000  0.000  0.001  0.002  0.018  0.002  0.014  0.009  0.001  0.047
    9  0.001  0.001  0.000  0.000  0.002  0.005  0.007  0.001  0.012  0.029
   10  0.001  0.000  0.000  0.000  0.002  0.000  0.000  0.000  0.001  0.005
   11  0.000  0.000  0.000  0.002  0.022  0.000  0.007  0.011  0.000  0.044
   12  0.003  0.000  0.002  0.002  0.019  0.001  0.033  0.010  0.002  0.074
   13  0.000  0.001  0.000  0.000  0.002  0.005  0.004  0.001  0.010  0.023
   14  0.000  0.000  0.000  0.000  0.002  0.000  0.001  0.001  0.000  0.004
   15  0.002  0.000  0.001  0.002  0.023  0.002  0.022  0.013  0.005  0.072
   16  0.003  0.000  0.000  0.000  0.000  0.000  0.000  0.000  0.000  0.003
   17  0.052  0.000  0.000  0.000  0.000  0.000  0.000  0.000  0.000  0.052
   18  0.009  0.000  0.000  0.000  0.000  0.000  0.000  0.000  0.000  0.009
   19  0.004  0.000  0.000  0.000  0.000  0.000  0.000  0.000  0.000  0.004
   20  0.045  0.000  0.000  0.000  0.000  0.000  0.000  0.000  0.000  0.045
   21  0.041  0.000  0.000  0.000  0.000  0.000  0.000  0.000  0.000  0.041
   22  0.001  0.000  0.000  0.000  0.000  0.000  0.000  0.000  0.000  0.001
   23  0.047  0.000  0.000  0.000  0.000  0.000  0.000  0.000  0.000  0.047
   24  0.017  0.000  0.000  0.000  0.000  0.000  0.000  0.000  0.000  0.017
   25  0.009  0.000  0.000  0.000  0.000  0.000  0.000  0.000  0.000  0.009
   26  0.001  0.000  0.000  0.000  0.000  0.000  0.000  0.000  0.000  0.001
   27  0.007  0.000  0.000  0.000  0.000  0.000  0.000  0.000  0.000  0.007
   28  0.047  0.000  0.000  0.000  0.000  0.000  0.000  0.000  0.000  0.047
   29  0.005  0.000  0.000  0.000  0.000  0.000  0.000  0.000  0.000  0.005
   30  0.004  0.000  0.000  0.000  0.000  0.000  0.000  0.000  0.000  0.004
   31  0.039  0.000  0.000  0.000  0.000  0.000  0.000  0.000  0.000  0.039
tot    0.343  0.005  0.013  0.016  0.145  0.023  0.189  0.080  0.046  0.860

band    11 # energy  -10.46528723 # occ.  1.00000000

ion      s     py     pz     px    dxy    dyz    dz2    dxz  x2-y2    tot
    1  0.001  0.001  0.000  0.000  0.003  0.002  0.001  0.001  0.007  0.016
    2  0.002  0.000  0.001  0.001  0.012  0.002  0.016  0.005  0.002  0.041
    3  0.001  0.000  0.000  0.000  0.002  0.000  0.000  0.001  0.000  0.004
    4  0.001  0.000  0.000  0.002  0.008  0.002  0.002  0.010  0.011  0.036
    5  0.002  0.001  0.000  0.001  0.008  0.006  0.004  0.004  0.011  0.036
    6  0.000  0.000  0.002  0.001  0.007  0.000  0.023  0.004  0.001  0.038
    7  0.001  0.001  0.002  0.001  0.005  0.005  0.021  0.008  0.016  0.060
    8  0.001  0.002  0.002  0.001  0.008  0.002  0.030  0.004  0.013  0.062
    9  0.001  0.000  0.000  0.003  0.023  0.000  0.004  0.012  0.000  0.043
   10  0.001  0.002  0.000  0.001  0.005  0.005  0.001  0.001  0.015  0.031
   11  0.001  0.000  0.000  0.001  0.012  0.001  0.000  0.005  0.001  0.021
   12  0.000  0.000  0.000  0.000  0.003  0.001  0.004  0.001  0.001  0.012
   13  0.002  0.001  0.002  0.001  0.007  0.008  0.022  0.003  0.015  0.060
   14  0.004  0.001  0.000  0.001  0.006  0.002  0.003  0.001  0.004  0.021
   15  0.000  0.001  0.001  0.000  0.002  0.007  0.013  0.001  0.013  0.039
   16  0.030  0.000  0.000  0.000  0.000  0.000  0.000  0.000  0.000  0.030
   17  0.000  0.000  0.000  0.000  0.000  0.000  0.000  0.000  0.000  0.000
   18  0.049  0.000  0.000  0.000  0.000  0.000  0.000  0.000  0.000  0.049
   19  0.000  0.000  0.000  0.000  0.000  0.000  0.000  0.000  0.000  0.000
   20  0.006  0.000  0.000  0.000  0.000  0.000  0.000  0.000  0.000  0.006
   21  0.017  0.000  0.000  0.000  0.000  0.000  0.000  0.000  0.000  0.017
   22  0.043  0.000  0.000  0.000  0.000  0.000  0.000  0.000  0.000  0.043
   23  0.046  0.000  0.000  0.000  0.000  0.000  0.000  0.000  0.000  0.046
   24  0.057  0.000  0.000  0.000  0.000  0.000  0.000  0.000  0.000  0.058
   25  0.009  0.000  0.000  0.000  0.000  0.000  0.000  0.000  0.000  0.009
   26  0.007  0.000  0.000  0.000  0.000  0.000  0.000  0.000  0.000  0.007
   27  0.003  0.000  0.000  0.000  0.000  0.000  0.000  0.000  0.000  0.003
   28  0.006  0.000  0.000  0.000  0.000  0.000  0.000  0.000  0.000  0.006
   29  0.040  0.000  0.000  0.000  0.000  0.000  0.000  0.000  0.000  0.040
   30  0.002  0.000  0.000  0.000  0.000  0.000  0.000  0.000  0.000  0.002
   31  0.024  0.000  0.000  0.000  0.000  0.000  0.000  0.000  0.000  0.024
tot    0.352  0.011  0.010  0.013  0.111  0.042  0.143  0.063  0.113  0.859

band    12 # energy  -10.45476753 # occ.  1.00000000

ion      s     py     pz     px    dxy    dyz    dz2    dxz  x2-y2    tot
    1  0.001  0.002  0.000  0.000  0.002  0.011  0.006  0.001  0.022  0.044
    2  0.002  0.000  0.003  0.002  0.020  0.000  0.037  0.007  0.000  0.071
    3  0.001  0.001  0.001  0.000  0.000  0.007  0.008  0.000  0.005  0.024
    4  0.000  0.001  0.000  0.000  0.004  0.003  0.001  0.003  0.006  0.018
    5  0.000  0.000  0.002  0.000  0.003  0.002  0.024  0.001  0.004  0.036
    6  0.000  0.001  0.000  0.002  0.019  0.005  0.006  0.010  0.007  0.049
    7  0.001  0.000  0.000  0.001  0.005  0.000  0.003  0.003  0.000  0.013
    8  0.000  0.000  0.000  0.000  0.002  0.000  0.002  0.001  0.002  0.009
    9  0.004  0.001  0.002  0.001  0.005  0.004  0.036  0.003  0.007  0.063
   10  0.001  0.001  0.001  0.001  0.006  0.007  0.012  0.001  0.011  0.040
   11  0.000  0.000  0.001  0.000  0.001  0.000  0.014  0.001  0.001  0.018
   12  0.000  0.000  0.001  0.001  0.013  0.001  0.008  0.006  0.002  0.033
   13  0.000  0.002  0.001  0.001  0.007  0.013  0.010  0.004  0.028  0.066
   14  0.001  0.000  0.000  0.000  0.003  0.003  0.004  0.001  0.004  0.017
   15  0.001  0.001  0.000  0.000  0.005  0.006  0.001  0.002  0.012  0.028
   16  0.007  0.000  0.000  0.000  0.000  0.000  0.000  0.000  0.000  0.007
   17  0.011  0.000  0.000  0.000  0.000  0.000  0.000  0.000  0.000  0.011
   18  0.073  0.000  0.000  0.000  0.000  0.000  0.000  0.000  0.000  0.073
   19  0.012  0.000  0.000  0.000  0.000  0.000  0.000  0.000  0.000  0.012
   20  0.002  0.000  0.000  0.000  0.000  0.000  0.000  0.000  0.000  0.002