PROCAR lm decomposed
# of k-points:    2         # of bands:  216         # of ions:   31

 k-point     1 :    0.25000000 0.25000000 0.25000000     weight = 1.00000000

band     1 # energy  -11.19280563 # occ.  1.00000000

ion      s     py     pz     px    dxy    dyz    dz2    dxz  x2-y2    tot
    1  0.021  0.000  0.001  0.001  0.002  0.000  0.004  0.001  0.000  0.030
    2  0.008  0.000  0.000  0.000  0.001  0.000  0.001  0.000  0.000  0.011
    3  0.004  0.000  0.000  0.000  0.000  0.000  0.000  0.000  0.001  0.006
    4  0.012  0.000  0.000  0.000  0.001  0.000  0.002  0.001  0.000  0.017
    5  0.023  0.000  0.001  0.001  0.002  0.000  0.004  0.001  0.000  0.031
    6  0.007  0.000  0.000  0.000  0.001  0.000  0.001  0.000  0.001  0.011
    7  0.013  0.000  0.000  0.000  0.000  0.000  0.002  0.000  0.000  0.017
    8  0.007  0.000  0.000  0.000  0.001  0.000  0.001  0.000  0.001  0.010
    9  0.012  0.000  0.000  0.000  0.001  0.000  0.002  0.000  0.001  0.018
   10  0.003  0.000  0.000  0.000  0.000  0.000  0.001  0.000  0.000  0.005
   11  0.009  0.000  0.000  0.000  0.001  0.000  0.001  0.000  0.001  0.014
   12  0.021  0.000  0.001  0.001  0.002  0.000  0.004  0.001  0.000  0.030
   13  0.013  0.000  0.000  0.000  0.000  0.000  0.002  0.000  0.001  0.018
   14  0.003  0.000  0.000  0.000  0.000  0.000  0.000  0.000  0.000  0.005
   15  0.021  0.000  0.001  0.001  0.002  0.000  0.004  0.001  0.000  0.030
   16  0.004  0.000  0.000  0.000  0.000  0.000  0.000  0.000  0.000  0.004
   17  0.056  0.000  0.000  0.000  0.000  0.000  0.000  0.000  0.000  0.056
   18  0.018  0.000  0.000  0.000  0.000  0.000  0.000  0.000  0.000  0.018
   19  0.008  0.000  0.000  0.000  0.000  0.000  0.000  0.000  0.000  0.008
   20  0.030  0.000  0.000  0.000  0.000  0.000  0.000  0.000  0.000  0.030
   21  0.057  0.000  0.000  0.000  0.000  0.000  0.000  0.000  0.000  0.057
   22  0.018  0.000  0.000  0.000  0.000  0.000  0.000  0.000  0.000  0.018
   23  0.030  0.000  0.000  0.000  0.000  0.000  0.000  0.000  0.000  0.030
   24  0.013  0.000  0.000  0.000  0.000  0.000  0.000  0.000  0.000  0.013
   25  0.029  0.000  0.000  0.000  0.000  0.000  0.000  0.000  0.000  0.029
   26  0.005  0.000  0.000  0.000  0.000  0.000  0.000  0.000  0.000  0.005
   27  0.023  0.000  0.000  0.000  0.000  0.000  0.000  0.000  0.000  0.023
   28  0.059  0.000  0.000  0.000  0.000  0.000  0.000  0.000  0.000  0.059
   29  0.031  0.000  0.000  0.000  0.000  0.000  0.000  0.000  0.000  0.031
   30  0.004  0.000  0.000  0.000  0.000  0.000  0.000  0.000  0.000  0.005
   31  0.058  0.000  0.000  0.000  0.000  0.000  0.000  0.000  0.000  0.058
tot    0.619  0.003  0.007  0.005  0.016  0.004  0.029  0.008  0.008  0.698

band     2 # energy  -10.91116840 # occ.  1.00000000

ion      s     py     pz     px    dxy    dyz    dz2    dxz  x2-y2    tot
    1  0.003  0.001  0.000  0.000  0.001  0.004  0.001  0.000  0.008  0.019
    2  0.010  0.000  0.001  0.000  0.001  0.001  0.003  0.001  0.001  0.018
    3  0.013  0.001  0.001  0.000  0.000  0.001  0.003  0.000  0.004  0.023
    4  0.012  0.000  0.000  0.000  0.003  0.001  0.002  0.001  0.004  0.024
    5  0.002  0.002  0.000  0.000  0.001  0.004  0.001  0.000  0.008  0.018
    6  0.014  0.000  0.001  0.000  0.002  0.000  0.004  0.000  0.000  0.022
    7  0.009  0.000  0.000  0.001  0.004  0.001  0.002  0.002  0.004  0.023
    8  0.008  0.000  0.000  0.000  0.002  0.000  0.003  0.001  0.001  0.016
    9  0.011  0.001  0.000  0.000  0.003  0.002  0.003  0.001  0.004  0.026
   10  0.009  0.000  0.000  0.000  0.001  0.001  0.002  0.000  0.001  0.015
   11  0.018  0.000  0.001  0.000  0.001  0.001  0.005  0.001  0.002  0.029
   12  0.003  0.002  0.000  0.000  0.001  0.004  0.001  0.000  0.009  0.021
   13  0.011  0.001  0.000  0.000  0.002  0.002  0.003  0.001  0.004  0.024
   14  0.011  0.000  0.000  0.000  0.002  0.001  0.001  0.001  0.001  0.017
   15  0.002  0.001  0.000  0.000  0.001  0.004  0.001  0.000  0.008  0.016
   16  0.011  0.000  0.000  0.000  0.000  0.000  0.000  0.000  0.000  0.011
   17  0.012  0.000  0.000  0.000  0.000  0.000  0.000  0.000  0.000  0.012
   18  0.035  0.000  0.000  0.000  0.000  0.000  0.000  0.000  0.000  0.035
   19  0.042  0.000  0.000  0.000  0.000  0.000  0.000  0.000  0.000  0.042
   20  0.043  0.000  0.000  0.000  0.000  0.000  0.000  0.000  0.000  0.043
   21  0.008  0.000  0.000  0.000  0.000  0.000  0.000  0.000  0.000  0.008
   22  0.047  0.000  0.000  0.000  0.000  0.000  0.000  0.000  0.000  0.047
   23  0.032  0.000  0.000  0.000  0.000  0.000  0.000  0.000  0.000  0.032
   24  0.014  0.000  0.000  0.000  0.000  0.000  0.000  0.000  0.000  0.014
   25  0.036  0.000  0.000  0.000  0.000  0.000  0.000  0.000  0.000  0.036
   26  0.013  0.000  0.000  0.000  0.000  0.000  0.000  0.000  0.000  0.013
   27  0.059  0.000  0.000  0.000  0.000  0.000  0.000  0.000  0.000  0.059
   28  0.015  0.000  0.000  0.000  0.000  0.000  0.000  0.000  0.000  0.015
   29  0.034  0.000  0.000  0.000  0.000  0.000  0.000  0.000  0.000  0.034
   30  0.021  0.000  0.000  0.000  0.000  0.000  0.000  0.000  0.000  0.021
   31  0.008  0.000  0.000  0.000  0.000  0.000  0.000  0.000  0.000  0.008
tot    0.562  0.011  0.006  0.005  0.024  0.027  0.034  0.010  0.060  0.739

band     3 # energy  -10.75493337 # occ.  1.00000000

ion      s     py     pz     px    dxy    dyz    dz2    dxz  x2-y2    tot
    1  0.010  0.000  0.001  0.003  0.025  0.000  0.016  0.012  0.000  0.069
    2  0.002  0.000  0.000  0.001  0.005  0.000  0.001  0.002  0.000  0.013
    3  0.001  0.000  0.000  0.000  0.000  0.000  0.000  0.000  0.001  0.002
    4  0.003  0.001  0.000  0.000  0.001  0.003  0.002  0.001  0.007  0.019
    5  0.011  0.000  0.000  0.003  0.023  0.001  0.004  0.012  0.002  0.057
    6  0.001  0.000  0.000  0.001  0.008  0.000  0.000  0.003  0.000  0.013
    7  0.007  0.001  0.000  0.000  0.001  0.002  0.002  0.001  0.005  0.019
    8  0.002  0.000  0.000  0.001  0.005  0.000  0.000  0.002  0.000  0.011
    9  0.005  0.002  0.000  0.000  0.002  0.006  0.001  0.001  0.014  0.032
   10  0.001  0.000  0.000  0.000  0.000  0.000  0.000  0.000  0.001  0.002
   11  0.001  0.000  0.000  0.001  0.010  0.000  0.001  0.004  0.000  0.019
   12  0.009  0.000  0.001  0.004  0.030  0.000  0.007  0.015  0.000  0.065
   13  0.006  0.001  0.000  0.000  0.001  0.002  0.004  0.001  0.005  0.021
   14  0.000  0.000  0.000  0.000  0.000  0.000  0.000  0.000  0.000  0.001
   15  0.011  0.000  0.001  0.004  0.029  0.001  0.011  0.013  0.002  0.071
   16  0.001  0.000  0.000  0.000  0.000  0.000  0.000  0.000  0.000  0.001
   17  0.092  0.000  0.000  0.000  0.000  0.000  0.000  0.000  0.000  0.092
   18  0.009  0.000  0.000  0.000  0.000  0.000  0.000  0.000  0.000  0.009
   19  0.001  0.000  0.000  0.000  0.000  0.000  0.000  0.000  0.000  0.001
   20  0.013  0.000  0.000  0.000  0.000  0.000  0.000  0.000  0.000  0.013
   21  0.051  0.000  0.000  0.000  0.000  0.000  0.000  0.000  0.000  0.051
   22  0.002  0.000  0.000  0.000  0.000  0.000  0.000  0.000  0.000  0.002
   23  0.035  0.000  0.000  0.000  0.000  0.000  0.000  0.000  0.000  0.035
   24  0.003  0.000  0.000  0.000  0.000  0.000  0.000  0.000  0.000  0.003
   25  0.014  0.000  0.000  0.000  0.000  0.000  0.000  0.000  0.000  0.014
   26  0.001  0.000  0.000  0.000  0.000  0.000  0.000  0.000  0.000  0.001
   27  0.007  0.000  0.000  0.000  0.000  0.000  0.000  0.000  0.000  0.007
   28  0.061  0.000  0.000  0.000  0.000  0.000  0.000  0.000  0.000  0.061
   29  0.032  0.000  0.000  0.000  0.000  0.000  0.000  0.000  0.000  0.032
   30  0.001  0.000  0.000  0.000  0.000  0.000  0.000  0.000  0.000  0.001
   31  0.061  0.000  0.000  0.000  0.000  0.000  0.000  0.000  0.000  0.061
tot    0.453  0.005  0.005  0.020  0.141  0.015  0.052  0.069  0.038  0.798

band     4 # energy  -10.70243221 # occ.  1.00000000

ion      s     py     pz     px    dxy    dyz    dz2    dxz  x2-y2    tot
    1  0.003  0.002  0.000  0.001  0.005  0.010  0.002  0.002  0.025  0.051
    2  0.006  0.000  0.000  0.000  0.003  0.000  0.003  0.001  0.001  0.015
    3  0.005  0.001  0.000  0.000  0.000  0.002  0.004  0.000  0.004  0.017
    4  0.002  0.002  0.000  0.001  0.005  0.007  0.005  0.003  0.015  0.039
    5  0.009  0.001  0.000  0.000  0.003  0.006  0.003  0.001  0.015  0.039
    6  0.004  0.000  0.000  0.000  0.001  0.001  0.003  0.001  0.003  0.013
    7  0.004  0.001  0.001  0.000  0.002  0.005  0.007  0.000  0.013  0.033
    8  0.004  0.000  0.000  0.000  0.001  0.000  0.000  0.000  0.002  0.009
    9  0.007  0.001  0.000  0.000  0.001  0.005  0.002  0.001  0.010  0.027
   10  0.005  0.001  0.000  0.000  0.001  0.001  0.001  0.000  0.002  0.012
   11  0.010  0.000  0.000  0.000  0.001  0.002  0.003  0.001  0.003  0.021
   12  0.002  0.001  0.001  0.001  0.007  0.007  0.018  0.003  0.014  0.054
   13  0.003  0.002  0.000  0.000  0.003  0.009  0.000  0.001  0.018  0.037
   14  0.003  0.001  0.000  0.000  0.002  0.002  0.000  0.001  0.003  0.012
   15  0.001  0.002  0.001  0.000  0.002  0.009  0.012  0.001  0.020  0.048
   16  0.004  0.000  0.000  0.000  0.000  0.000  0.000  0.000  0.000  0.004
   17  0.019  0.000  0.000  0.000  0.000  0.000  0.000  0.000  0.000  0.019
   18  0.032  0.000  0.000  0.000  0.000  0.000  0.000  0.000  0.000  0.032
   19  0.027  0.000  0.000  0.000  0.000  0.000  0.000  0.000  0.000  0.027
   20  0.016  0.000  0.000  0.000  0.000  0.000  0.000  0.000  0.000  0.016
   21  0.047  0.000  0.000  0.000  0.000  0.000  0.000  0.000  0.000  0.047
   22  0.025  0.000  0.000  0.000  0.000  0.000  0.000  0.000  0.000  0.025
   23  0.024  0.000  0.000  0.000  0.000  0.000  0.000  0.000  0.000  0.024
   24  0.008  0.000  0.000  0.000  0.000  0.000  0.000  0.000  0.000  0.008
   25  0.026  0.000  0.000  0.000  0.000  0.000  0.000  0.000  0.000  0.026
   26  0.008  0.000  0.000  0.000  0.000  0.000  0.000  0.000  0.000  0.008
   27  0.044  0.000  0.000  0.000  0.000  0.000  0.000  0.000  0.000  0.044
   28  0.056  0.000  0.000  0.000  0.000  0.000  0.000  0.000  0.000  0.056
   29  0.007  0.000  0.000  0.000  0.000  0.000  0.000  0.000  0.000  0.007
   30  0.005  0.000  0.000  0.000  0.000  0.000  0.000  0.000  0.000  0.005
   31  0.031  0.000  0.000  0.000  0.000  0.000  0.000  0.000  0.000  0.031
tot    0.446  0.018  0.006  0.005  0.036  0.066  0.063  0.016  0.149  0.804

band     5 # energy  -10.67787868 # occ.  1.00000000

ion      s     py     pz     px    dxy    dyz    dz2    dxz  x2-y2    tot
    1  0.007  0.000  0.004  0.000  0.002  0.001  0.056  0.001  0.002  0.073
    2  0.003  0.000  0.000  0.000  0.003  0.001  0.003  0.001  0.001  0.013
    3  0.001  0.000  0.000  0.000  0.000  0.000  0.001  0.000  0.001  0.002
    4  0.003  0.000  0.001  0.000  0.000  0.002  0.012  0.000  0.002  0.020
    5  0.003  0.000  0.005  0.001  0.006  0.001  0.059  0.004  0.001  0.079
    6  0.003  0.000  0.000  0.000  0.001  0.001  0.004  0.001  0.002  0.012
    7  0.002  0.001  0.001  0.000  0.001  0.003  0.011  0.000  0.004  0.024
    8  0.001  0.000  0.000  0.000  0.001  0.001  0.004  0.001  0.001  0.009
    9  0.000  0.001  0.002  0.000  0.000  0.004  0.024  0.000  0.007  0.038
   10  0.000  0.000  0.000  0.000  0.000  0.000  0.001  0.000  0.000  0.002
   11  0.001  0.000  0.001  0.000  0.001  0.001  0.009  0.000  0.001  0.015
   12  0.008  0.000  0.003  0.000  0.003  0.002  0.050  0.002  0.004  0.072
   13  0.002  0.001  0.001  0.000  0.000  0.005  0.016  0.000  0.010  0.037
   14  0.000  0.000  0.000  0.000  0.000  0.000  0.001  0.000  0.000  0.001
   15  0.009  0.000  0.003  0.001  0.008  0.001  0.043  0.005  0.003  0.073
   16  0.001  0.000  0.000  0.000  0.000  0.000  0.000  0.000  0.000  0.001
   17  0.055  0.000  0.000  0.000  0.000  0.000  0.000  0.000  0.000  0.055
   18  0.004  0.000  0.000  0.000  0.000  0.000  0.000  0.000  0.000  0.004
   19  0.002  0.000  0.000  0.000  0.000  0.000  0.000  0.000  0.000  0.002
   20  0.020  0.000  0.000  0.000  0.000  0.000  0.000  0.000  0.000  0.020
   21  0.084  0.000  0.000  0.000  0.000  0.000  0.000  0.000  0.000  0.085
   22  0.001  0.000  0.000  0.000  0.000  0.000  0.000  0.000  0.000  0.001
   23  0.015  0.000  0.000  0.000  0.000  0.000  0.000  0.000  0.000  0.015
   24  0.002  0.000  0.000  0.000  0.000  0.000  0.000  0.000  0.000  0.002
   25  0.036  0.000  0.000  0.000  0.000  0.000  0.000  0.000  0.000  0.036
   26  0.001  0.000  0.000  0.000  0.000  0.000  0.000  0.000  0.000  0.001
   27  0.007  0.000  0.000  0.000  0.000  0.000  0.000  0.000  0.000  0.007
   28  0.048  0.000  0.000  0.000  0.000  0.000  0.000  0.000  0.000  0.048
   29  0.017  0.000  0.000  0.000  0.000  0.000  0.000  0.000  0.000  0.017
   30  0.001  0.000  0.000  0.000  0.000  0.000  0.000  0.000  0.000  0.001
   31  0.061  0.000  0.000  0.000  0.000  0.000  0.000  0.000  0.000  0.061
tot    0.400  0.005  0.021  0.004  0.027  0.022  0.292  0.015  0.040  0.826

band     6 # energy  -10.63824087 # occ.  1.00000000

ion      s     py     pz     px    dxy    dyz    dz2    dxz  x2-y2    tot
    1  0.001  0.001  0.002  0.003  0.029  0.003  0.024  0.014  0.007  0.084
    2  0.001  0.000  0.000  0.001  0.005  0.000  0.001  0.002  0.000  0.010
    3  0.001  0.000  0.000  0.000  0.000  0.001  0.000  0.000  0.001  0.004
    4  0.006  0.000  0.001  0.000  0.002  0.001  0.009  0.002  0.002  0.025
    5  0.001  0.001  0.001  0.003  0.025  0.005  0.010  0.013  0.010  0.067
    6  0.002  0.000  0.000  0.001  0.004  0.000  0.003  0.002  0.000  0.013
    7  0.005  0.001  0.000  0.001  0.003  0.003  0.000  0.003  0.008  0.024
    8  0.004  0.000  0.000  0.001  0.005  0.000  0.001  0.002  0.000  0.013
    9  0.005  0.001  0.000  0.001  0.007  0.004  0.002  0.004  0.010  0.033
   10  0.000  0.000  0.000  0.000  0.001  0.000  0.000  0.000  0.001  0.003
   11  0.001  0.000  0.000  0.002  0.014  0.000  0.002  0.007  0.001  0.027
   12  0.001  0.002  0.001  0.002  0.023  0.010  0.014  0.010  0.020  0.083
   13  0.004  0.000  0.000  0.001  0.006  0.001  0.003  0.003  0.003  0.021
   14  0.001  0.000  0.000  0.000  0.000  0.001  0.001  0.000  0.002  0.005
   15  0.002  0.001  0.001  0.002  0.028  0.004  0.021  0.013  0.007  0.079
   16  0.003  0.000  0.000  0.000  0.000  0.000  0.000  0.000  0.000  0.003
   17  0.066  0.000  0.000  0.000  0.000  0.000  0.000  0.000  0.000  0.066
   18  0.007  0.000  0.000  0.000  0.000  0.000  0.000  0.000  0.000  0.007
   19  0.001  0.000  0.000  0.000  0.000  0.000  0.000  0.000  0.000  0.001
   20  0.042  0.000  0.000  0.000  0.000  0.000  0.000  0.000  0.000  0.042
   21  0.032  0.000  0.000  0.000  0.000  0.000  0.000  0.000  0.000  0.032
   22  0.022  0.000  0.000  0.000  0.000  0.000  0.000  0.000  0.000  0.022
   23  0.017  0.000  0.000  0.000  0.000  0.000  0.000  0.000  0.000  0.017
   24  0.006  0.000  0.000  0.000  0.000  0.000  0.000  0.000  0.000  0.006
   25  0.013  0.000  0.000  0.000  0.000  0.000  0.000  0.000  0.000  0.013
   26  0.001  0.000  0.000  0.000  0.000  0.000  0.000  0.000  0.000  0.001
   27  0.012  0.000  0.000  0.000  0.000  0.000  0.000  0.000  0.000  0.012
   28  0.043  0.000  0.000  0.000  0.000  0.000  0.000  0.000  0.000  0.043
   29  0.016  0.000  0.000  0.000  0.000  0.000  0.000  0.000  0.000  0.016
   30  0.001  0.000  0.000  0.000  0.000  0.000  0.000  0.000  0.000  0.001
   31  0.065  0.000  0.000  0.000  0.000  0.000  0.000  0.000  0.000  0.065
tot    0.381  0.008  0.007  0.016  0.151  0.035  0.091  0.075  0.073  0.837

band     7 # energy  -10.57005054 # occ.  1.00000000

ion      s     py     pz     px    dxy    dyz    dz2    dxz  x2-y2    tot
    1  0.001  0.001  0.000  0.001  0.011  0.007  0.008  0.006  0.015  0.051
    2  0.002  0.001  0.000  0.001  0.004  0.002  0.003  0.003  0.005  0.020
    3  0.007  0.000  0.001  0.000  0.001  0.000  0.005  0.000  0.003  0.017
    4  0.001  0.001  0.002  0.001  0.006  0.003  0.024  0.003  0.006  0.046
    5  0.001  0.000  0.001  0.001  0.011  0.000  0.009  0.006  0.001  0.030
    6  0.003  0.001  0.000  0.000  0.003  0.003  0.005  0.001  0.004  0.020
    7  0.001  0.001  0.001  0.001  0.006  0.002  0.012  0.004  0.005  0.032
    8  0.007  0.001  0.000  0.000  0.000  0.002  0.003  0.000  0.004  0.017
    9  0.001  0.000  0.001  0.001  0.009  0.003  0.019  0.004  0.006  0.044
   10  0.004  0.000  0.000  0.001  0.003  0.001  0.000  0.001  0.002  0.011
   11  0.001  0.002  0.001  0.001  0.011  0.010  0.014  0.005  0.021  0.067
   12  0.000  0.001  0.001  0.001  0.012  0.008  0.021  0.006  0.015  0.066
   13  0.000  0.001  0.000  0.001  0.007  0.003  0.003  0.003  0.005  0.023
   14  0.003  0.000  0.000  0.001  0.005  0.000  0.001  0.001  0.001  0.012
   15  0.000  0.002  0.000  0.000  0.004  0.011  0.007  0.002  0.019  0.045
   16  0.001  0.000  0.000  0.000  0.000  0.000  0.000  0.000  0.000  0.001
   17  0.019  0.000  0.000  0.000  0.000  0.000  0.000  0.000  0.000  0.019
   18  0.020  0.000  0.000  0.000  0.000  0.000  0.000  0.000  0.000  0.020
   19  0.031  0.000  0.000  0.000  0.000  0.000  0.000  0.000  0.000  0.031
   20  0.055  0.000  0.000  0.000  0.000  0.000  0.000  0.000  0.000  0.055
   21  0.021  0.000  0.000  0.000  0.000  0.000  0.000  0.000  0.000  0.021
   22  0.012  0.000  0.000  0.000  0.000  0.000  0.000  0.000  0.000  0.012
   23  0.035  0.000  0.000  0.000  0.000  0.000  0.000  0.000  0.000  0.035
   24  0.002  0.000  0.000  0.000  0.000  0.000  0.000  0.000  0.000  0.002
   25  0.045  0.000  0.000  0.000  0.000  0.000  0.000  0.000  0.000  0.045
   26  0.005  0.000  0.000  0.000  0.000  0.000  0.000  0.000  0.000  0.005
   27  0.035  0.000  0.000  0.000  0.000  0.000  0.000  0.000  0.000  0.035
   28  0.034  0.000  0.000  0.000  0.000  0.000  0.000  0.000  0.000  0.034
   29  0.002  0.000  0.000  0.000  0.000  0.000  0.000  0.000  0.000  0.002
   30  0.010  0.000  0.000  0.000  0.000  0.000  0.000  0.000  0.000  0.011
   31  0.011  0.000  0.000  0.000  0.000  0.000  0.000  0.000  0.000  0.011
tot    0.373  0.012  0.009  0.011  0.092  0.055  0.135  0.046  0.111  0.842

band     8 # energy  -10.54903431 # occ.  1.00000000

ion      s     py     pz     px    dxy    dyz    dz2    dxz  x2-y2    tot
    1  0.001  0.001  0.001  0.001  0.007  0.008  0.012  0.005  0.016  0.050
    2  0.006  0.000  0.000  0.001  0.009  0.001  0.001  0.004  0.003  0.025
    3  0.000  0.001  0.000  0.000  0.001  0.002  0.003  0.000  0.004  0.012
    4  0.001  0.001  0.000  0.000  0.004  0.002  0.002  0.001  0.006  0.018
    5  0.001  0.001  0.002  0.001  0.006  0.003  0.026  0.003  0.005  0.048
    6  0.001  0.000  0.001  0.003  0.024  0.001  0.016  0.010  0.001  0.056
    7  0.002  0.000  0.001  0.001  0.005  0.002  0.020  0.002  0.004  0.038
    8  0.002  0.000  0.000  0.001  0.005  0.001  0.002  0.002  0.001  0.014
    9  0.002  0.000  0.001  0.001  0.015  0.002  0.022  0.007  0.005  0.057
   10  0.000  0.000  0.000  0.000  0.000  0.000  0.001  0.000  0.002  0.004
   11  0.000  0.000  0.001  0.001  0.011  0.001  0.018  0.005  0.002  0.040
   12  0.001  0.000  0.000  0.001  0.011  0.001  0.004  0.006  0.002  0.025
   13  0.000  0.001  0.002  0.001  0.008  0.007  0.026  0.003  0.014  0.062
   14  0.004  0.000  0.000  0.000  0.000  0.002  0.001  0.000  0.003  0.011
   15  0.002  0.001  0.001  0.001  0.013  0.004  0.018  0.007  0.006  0.052
   16  0.004  0.000  0.000  0.000  0.000  0.000  0.000  0.000  0.000  0.004
   17  0.014  0.000  0.000  0.000  0.000  0.000  0.000  0.000  0.000  0.014
   18  0.005  0.000  0.000  0.000  0.000  0.000  0.000  0.000  0.000  0.005
   19  0.004  0.000  0.000  0.000  0.000  0.000  0.000  0.000  0.000  0.004
   20  0.003  0.000  0.000  0.000  0.000  0.000  0.000  0.000  0.000  0.003
   21  0.033  0.000  0.000  0.000  0.000  0.000  0.000  0.000  0.000  0.033
   22  0.052  0.000  0.000  0.000  0.000  0.000  0.000  0.000  0.000  0.052
   23  0.047  0.000  0.000  0.000  0.000  0.000  0.000  0.000  0.000  0.047
   24  0.000  0.000  0.000  0.000  0.000  0.000  0.000  0.000  0.000  0.000
   25  0.057  0.000  0.000  0.000  0.000  0.000  0.000  0.000  0.000  0.057
   26  0.001  0.000  0.000  0.000  0.000  0.000  0.000  0.000  0.000  0.001
   27  0.036  0.000  0.000  0.000  0.000  0.000  0.000  0.000  0.000  0.036
   28  0.006  0.000  0.000  0.000  0.000  0.000  0.000  0.000  0.000  0.006
   29  0.047  0.000  0.000  0.000  0.000  0.000  0.000  0.000  0.000  0.047
   30  0.002  0.000  0.000  0.000  0.000  0.000  0.000  0.000  0.000  0.002
   31  0.024  0.000  0.000  0.000  0.000  0.000  0.000  0.000  0.000  0.024
tot    0.359  0.008  0.012  0.012  0.118  0.037  0.173  0.056  0.074  0.849

band     9 # energy  -10.53537928 # occ.  1.00000000

ion      s     py     pz     px    dxy    dyz    dz2    dxz  x2-y2    tot
    1  0.000  0.001  0.001  0.001  0.007  0.003  0.011  0.003  0.006  0.032
    2  0.000  0.000  0.002  0.002  0.015  0.001  0.030  0.007  0.003  0.062
    3  0.002  0.000  0.001  0.000  0.000  0.001  0.007  0.000  0.003  0.015
    4  0.002  0.001  0.000  0.000  0.002  0.004  0.001  0.000  0.010  0.021
    5  0.000  0.004  0.000  0.000  0.001  0.021  0.001  0.000  0.041  0.068
    6  0.006  0.001  0.001  0.000  0.004  0.003  0.016  0.002  0.005  0.039
    7  0.000  0.000  0.000  0.001  0.004  0.001  0.006  0.003  0.002  0.018
    8  0.001  0.000  0.000  0.000  0.003  0.001  0.001  0.002  0.003  0.011
    9  0.001  0.002  0.001  0.000  0.001  0.010  0.020  0.001  0.022  0.059
   10  0.006  0.001  0.000  0.000  0.003  0.002  0.004  0.001  0.004  0.020
   11  0.000  0.000  0.001  0.001  0.006  0.002  0.016  0.002  0.005  0.033
   12  0.001  0.000  0.000  0.000  0.003  0.002  0.009  0.001  0.004  0.021
   13  0.003  0.000  0.003  0.002  0.017  0.002  0.042  0.009  0.004  0.080
   14  0.005  0.000  0.001  0.000  0.000  0.000  0.007  0.001  0.001  0.015
   15  0.000  0.000  0.000  0.000  0.004  0.002  0.004  0.002  0.004  0.016
   16  0.011  0.000  0.000  0.000  0.000  0.000  0.000  0.000  0.000  0.011
   17  0.015  0.000  0.000  0.000  0.000  0.000  0.000  0.000  0.000  0.015
   18  0.059  0.000  0.000  0.000  0.000  0.000  0.000  0.000  0.000  0.059
   19  0.025  0.000  0.000  0.000  0.000  0.000  0.000  0.000  0.000  0.025
   20  0.012  0.000  0.000  0.000  0.000  0.000  0.000  0.000  0.000  0.012
   21  0.001  0.000  0.000  0.000  0.000  0.000  0.000  0.000  0.000  0.001
   22  0.030  0.000  0.000  0.000  0.000  0.000  0.000  0.000  0.000  0.030
   23  0.008  0.000  0.000  0.000  0.000  0.000  0.000  0.000  0.000  0.008
   24  0.004  0.000  0.000  0.000  0.000  0.000  0.000  0.000  0.000  0.004
   25  0.018  0.000  0.000  0.000  0.000  0.000  0.000  0.000  0.000  0.018
   26  0.001  0.000  0.000  0.000  0.000  0.000  0.000  0.000  0.000  0.001
   27  0.025  0.000  0.000  0.000  0.000  0.000  0.000  0.000  0.000  0.025
   28  0.019  0.000  0.000  0.000  0.000  0.000  0.000  0.000  0.000  0.019
   29  0.097  0.000  0.000  0.000  0.000  0.000  0.000  0.000  0.000  0.097
   30  0.001  0.000  0.000  0.000  0.000  0.000  0.000  0.000  0.000  0.001
   31  0.010  0.000  0.000  0.000  0.000  0.000  0.000  0.000  0.000  0.010
tot    0.365  0.012  0.012  0.008  0.070  0.055  0.175  0.035  0.116  0.847

band    10 # energy  -10.51406243 # occ.  1.00000000

ion      s     py     pz     px    dxy    dyz    dz2    dxz  x2-y2    tot
    1  0.001  0.000  0.000  0.000  0.005  0.002  0.001  0.002  0.004  0.015
    2  0.000  0.000  0.000  0.000  0.004  0.001  0.001  0.001  0.001  0.008
    3  0.004  0.001  0.000  0.000  0.000  0.002  0.000  0.000  0.005  0.012
    4  0.002  0.000  0.003  0.001  0.005  0.001  0.045  0.003  0.003  0.063
    5  0.000  0.000  0.000  0.001  0.007  0.002  0.004  0.004  0.004  0.022
    6  0.000  0.000  0.000  0.000  0.001  0.001  0.004  0.000  0.001  0.009
    7  0.000  0.001  0.003  0.000  0.005  0.004  0.039  0.002  0.012  0.067
    8  0.000  0.000  0.000  0.005  0.038  0.000  0.001  0.019  0.000  0.064
    9  0.000  0.000  0.000  0.001  0.005  0.000  0.001  0.003  0.000  0.009
   10  0.001  0.000  0.000  0.000  0.000  0.000  0.001  0.000  0.000  0.003
   11  0.004  0.002  0.002  0.003  0.031  0.007  0.030  0.015  0.013  0.105
   12  0.002  0.003  0.000  0.000  0.002  0.017  0.007  0.001  0.032  0.064
   13  0.001  0.001  0.000  0.000  0.002  0.004  0.002  0.001  0.006  0.017
   14  0.000  0.000  0.000  0.000  0.000  0.001  0.001  0.000  0.002  0.006
   15  0.000  0.002  0.001  0.000  0.004  0.013  0.019  0.001  0.028  0.068
   16  0.000  0.000  0.000  0.000  0.000  0.000  0.000  0.000  0.000  0.000
   17  0.000  0.000  0.000  0.000  0.000  0.000  0.000  0.000  0.000  0.000
   18  0.005  0.000  0.000  0.000  0.000  0.000  0.000  0.000  0.000  0.005
   19  0.006  0.000  0.000  0.000  0.000  0.000  0.000  0.000  0.000  0.006
   20  0.107  0.000  0.000  0.000  0.000  0.000  0.000  0.000  0.000  0.107
   21  0.013  0.000  0.000  0.000  0.000  0.000  0.000  0.000  0.000  0.013
   22  0.011  0.000  0.000  0.000  0.000  0.000  0.000  0.000  0.000  0.011
   23  0.091  0.000  0.000  0.000  0.000  0.000  0.000  0.000  0.000  0.091
   24  0.002  0.000  0.000  0.000  0.000  0.000  0.000  0.000  0.000  0.002
   25  0.003  0.000  0.000  0.000  0.000  0.000  0.000  0.000  0.000  0.003
   26  0.003  0.000  0.000  0.000  0.000  0.000  0.000  0.000  0.000  0.003
   27  0.047  0.000  0.000  0.000  0.000  0.000  0.000  0.000  0.000  0.047
   28  0.006  0.000  0.000  0.000  0.000  0.000  0.000  0.000  0.000  0.006
   29  0.009  0.000  0.000  0.000  0.000  0.000  0.000  0.000  0.000  0.009
   30  0.001  0.000  0.000  0.000  0.000  0.000  0.000  0.000  0.000  0.001
   31  0.022  0.000  0.000  0.000  0.000  0.000  0.000  0.000  0.000  0.022
tot    0.342  0.010  0.011  0.012  0.109  0.054  0.156  0.053  0.111  0.859

band    11 # energy  -10.48556110 # occ.  1.00000000

ion      s     py     pz     px    dxy    dyz    dz2    dxz  x2-y2    tot
    1  0.001  0.002  0.000  0.000  0.001  0.011  0.002  0.000  0.023  0.040
    2  0.001  0.000  0.002  0.002  0.023  0.002  0.029  0.011  0.003  0.074
    3  0.000  0.001  0.000  0.000  0.000  0.002  0.005  0.000  0.002  0.012
    4  0.000  0.000  0.000  0.000  0.002  0.002  0.000  0.001  0.005  0.010
    5  0.001  0.001  0.000  0.000  0.002  0.006  0.005  0.001  0.012  0.027
    6  0.001  0.000  0.002  0.003  0.025  0.002  0.028  0.011  0.002  0.074
    7  0.001  0.000  0.000  0.000  0.002  0.000  0.004  0.001  0.001  0.009
    8  0.000  0.000  0.000  0.000  0.000  0.000  0.000  0.000  0.001  0.002
    9  0.002  0.001  0.003  0.003  0.034  0.003  0.046  0.018  0.007  0.115
   10  0.005  0.001  0.000  0.000  0.002  0.003  0.002  0.001  0.006  0.019
   11  0.000  0.000  0.001  0.000  0.001  0.001  0.012  0.000  0.002  0.018
   12  0.000  0.000  0.000  0.000  0.001  0.000  0.003  0.000  0.000  0.005
   13  0.001  0.000  0.001  0.005  0.048  0.000  0.020  0.026  0.000  0.100
   14  0.002  0.001  0.000  0.000  0.002  0.006  0.001  0.001  0.012  0.026
   15  0.000  0.000  0.000  0.000  0.000  0.001  0.000  0.000  0.002  0.005
   16  0.001  0.000  0.000  0.000  0.000  0.000  0.000  0.000  0.000  0.001
   17  0.000  0.000  0.000  0.000  0.000  0.000  0.000  0.000  0.000  0.000
   18  0.078  0.000  0.000  0.000  0.000  0.000  0.000  0.000  0.000  0.078
   19  0.017  0.000  0.000  0.000  0.000  0.000  0.000  0.000  0.000  0.017
   20  0.000  0.000  0.000  0.000  0.000  0.000  0.000  0.000  0.000  0.000
   21  0.003  0.000  0.000  0.000  0.000  0.000  0.000  0.000  0.000  0.003
   22  0.078  0.000  0.000  0.000  0.000  0.000  0.000  0.000  0.000  0.078
   23  0.005  0.000  0.000  0.000  0.000  0.000  0.000  0.000  0.000  0.005
   24  0.001  0.000  0.000  0.000  0.000  0.000  0.000  0.000  0.000  0.001
   25  0.070  0.000  0.000  0.000  0.000  0.000  0.000  0.000  0.000  0.070
   26  0.002  0.000  0.000  0.000  0.000  0.000  0.000  0.000  0.000  0.002
   27  0.017  0.000  0.000  0.000  0.000  0.000  0.000  0.000  0.000  0.017
   28  0.006  0.000  0.000  0.000  0.000  0.000  0.000  0.000  0.000  0.006
   29  0.045  0.000  0.000  0.000  0.000  0.000  0.000  0.000  0.000  0.045
   30  0.001  0.000  0.000  0.000  0.000  0.000  0.000  0.000  0.000  0.001
   31  0.001  0.000  0.000  0.000  0.000  0.000  0.000  0.000  0.000  0.001
tot    0.339  0.008  0.010  0.014  0.144  0.038  0.157  0.071  0.078  0.859

band    12 # energy  -10.44495122 # occ.  1.00000000

ion      s     py     pz     px    dxy    dyz    dz2    dxz  x2-y2    tot
    1  0.000  0.000  0.000  0.000  0.001  0.000  0.001  0.000  0.000  0.002
    2  0.002  0.000  0.002  0.000  0.000  0.000  0.027  0.001  0.000  0.032
    3  0.005  0.002  0.003  0.000  0.000  0.008  0.035  0.000  0.006  0.059
    4  0.002  0.000  0.000  0.000  0.002  0.002  0.001  0.001  0.007  0.016
    5  0.000  0.000  0.000  0.000  0.000  0.003  0.000  0.000  0.006  0.010
    6  0.000  0.000  0.002  0.000  0.001  0.001  0.023  0.001  0.001  0.029
    7  0.002  0.000  0.000  0.000  0.003  0.003  0.000  0.001  0.008  0.017
    8  0.000  0.000  0.000  0.000  0.001  0.000  0.003  0.000  0.002  0.007
    9  0.002  0.000  0.000  0.003  0.027  0.003  0.002  0.015  0.009  0.062
   10  0.002  0.004  0.000  0.001  0.009  0.016  0.001  0.004  0.030  0.068
   11  0.002  0.003  0.001  0.000  0.000  0.018  0.024  0.000  0.036  0.085
   12  0.000  0.000  0.000  0.000  0.000  0.000  0.002  0.000  0.000  0.003
   13  0.004  0.001  0.001  0.000  0.002  0.008  0.021  0.001  0.020  0.059
   14  0.004  0.003  0.000  0.001  0.010  0.013  0.000  0.005  0.024  0.060
   15  0.000  0.000  0.000  0.000  0.000  0.001  0.002  0.000  0.001  0.004
   16  0.008  0.000  0.000  0.000  0.000  0.000  0.000  0.000  0.000  0.008
   17  0.001  0.000  0.000  0.000  0.000  0.000  0.000  0.000  0.000  0.001
   18  0.070  0.000  0.000  0.000  0.000  0.000  0.000  0.000  0.000  0.070
   19  0.135  0.000  0.000  0.000  0.000  0.000  0.000  0.000  0.000  0.135
   20  0.001  0.000  0.000  0.000  0.000  0.000  0.000  0.000  0.000  0.001