PROCAR lm decomposed
# of k-points:    2         # of bands:  216         # of ions:   31

 k-point     1 :    0.25000000 0.25000000 0.25000000     weight = 1.00000000

band     1 # energy  -11.16854629 # occ.  1.00000000

ion      s     py     pz     px    dxy    dyz    dz2    dxz  x2-y2    tot
    1  0.015  0.000  0.000  0.000  0.001  0.000  0.002  0.001  0.000  0.021
    2  0.010  0.000  0.000  0.000  0.001  0.000  0.001  0.000  0.000  0.014
    3  0.009  0.000  0.000  0.000  0.000  0.000  0.001  0.000  0.002  0.014
    4  0.014  0.000  0.001  0.001  0.001  0.000  0.002  0.001  0.000  0.021
    5  0.017  0.000  0.001  0.000  0.001  0.000  0.002  0.001  0.000  0.023
    6  0.009  0.000  0.000  0.000  0.001  0.000  0.001  0.001  0.001  0.014
    7  0.016  0.000  0.001  0.000  0.001  0.000  0.002  0.001  0.000  0.021
    8  0.011  0.000  0.000  0.000  0.001  0.001  0.001  0.001  0.001  0.016
    9  0.010  0.000  0.000  0.000  0.001  0.000  0.002  0.000  0.000  0.014
   10  0.007  0.000  0.000  0.000  0.000  0.000  0.002  0.000  0.000  0.011
   11  0.012  0.000  0.000  0.000  0.001  0.000  0.002  0.000  0.000  0.017
   12  0.015  0.000  0.001  0.000  0.001  0.000  0.002  0.001  0.000  0.020
   13  0.012  0.000  0.000  0.000  0.001  0.000  0.002  0.000  0.000  0.016
   14  0.007  0.000  0.000  0.000  0.001  0.000  0.001  0.001  0.000  0.010
   15  0.015  0.000  0.001  0.000  0.001  0.000  0.002  0.001  0.000  0.020
   16  0.015  0.000  0.000  0.000  0.000  0.000  0.000  0.000  0.000  0.015
   17  0.030  0.000  0.000  0.000  0.000  0.000  0.000  0.000  0.000  0.030
   18  0.022  0.000  0.000  0.000  0.000  0.000  0.000  0.000  0.000  0.022
   19  0.021  0.000  0.000  0.000  0.000  0.000  0.000  0.000  0.000  0.021
   20  0.032  0.000  0.000  0.000  0.000  0.000  0.000  0.000  0.000  0.032
   21  0.036  0.000  0.000  0.000  0.000  0.000  0.000  0.000  0.000  0.036
   22  0.020  0.000  0.000  0.000  0.000  0.000  0.000  0.000  0.000  0.020
   23  0.032  0.000  0.000  0.000  0.000  0.000  0.000  0.000  0.000  0.032
   24  0.029  0.000  0.000  0.000  0.000  0.000  0.000  0.000  0.000  0.030
   25  0.026  0.000  0.000  0.000  0.000  0.000  0.000  0.000  0.000  0.026
   26  0.016  0.000  0.000  0.000  0.000  0.000  0.000  0.000  0.000  0.016
   27  0.036  0.000  0.000  0.000  0.000  0.000  0.000  0.000  0.000  0.036
   28  0.043  0.000  0.000  0.000  0.000  0.000  0.000  0.000  0.000  0.043
   29  0.033  0.000  0.000  0.000  0.000  0.000  0.000  0.000  0.000  0.033
   30  0.015  0.000  0.000  0.000  0.000  0.000  0.000  0.000  0.000  0.015
   31  0.043  0.000  0.000  0.000  0.000  0.000  0.000  0.000  0.000  0.043
tot    0.627  0.002  0.007  0.005  0.014  0.003  0.027  0.008  0.006  0.699

band     2 # energy  -10.94861549 # occ.  1.00000000

ion      s     py     pz     px    dxy    dyz    dz2    dxz  x2-y2    tot
    1  0.005  0.001  0.000  0.000  0.001  0.002  0.001  0.000  0.004  0.015
    2  0.011  0.001  0.000  0.001  0.001  0.001  0.003  0.001  0.002  0.020
    3  0.013  0.001  0.001  0.000  0.000  0.003  0.003  0.000  0.003  0.026
    4  0.011  0.001  0.000  0.000  0.001  0.001  0.002  0.000  0.005  0.021
    5  0.006  0.001  0.000  0.000  0.001  0.003  0.001  0.001  0.005  0.019
    6  0.014  0.000  0.001  0.000  0.002  0.001  0.003  0.000  0.001  0.022
    7  0.008  0.001  0.000  0.001  0.003  0.001  0.001  0.002  0.004  0.022
    8  0.009  0.001  0.000  0.000  0.001  0.000  0.005  0.000  0.002  0.019
    9  0.008  0.001  0.000  0.000  0.002  0.001  0.002  0.001  0.003  0.018
   10  0.012  0.000  0.000  0.000  0.001  0.002  0.002  0.000  0.002  0.019
   11  0.011  0.001  0.001  0.000  0.001  0.002  0.003  0.001  0.003  0.022
   12  0.005  0.001  0.000  0.000  0.001  0.002  0.001  0.000  0.004  0.014
   13  0.010  0.001  0.000  0.000  0.001  0.001  0.003  0.000  0.003  0.019
   14  0.013  0.001  0.000  0.000  0.002  0.001  0.000  0.001  0.002  0.021
   15  0.005  0.001  0.000  0.000  0.001  0.002  0.002  0.000  0.003  0.013
   16  0.024  0.000  0.000  0.000  0.000  0.000  0.000  0.000  0.000  0.024
   17  0.013  0.000  0.000  0.000  0.000  0.000  0.000  0.000  0.000  0.013
   18  0.028  0.000  0.000  0.000  0.000  0.000  0.000  0.000  0.000  0.028
   19  0.040  0.000  0.000  0.000  0.000  0.000  0.000  0.000  0.000  0.040
   20  0.029  0.000  0.000  0.000  0.000  0.000  0.000  0.000  0.000  0.029
   21  0.014  0.000  0.000  0.000  0.000  0.000  0.000  0.000  0.000  0.014
   22  0.033  0.000  0.000  0.000  0.000  0.000  0.000  0.000  0.000  0.033
   23  0.023  0.000  0.000  0.000  0.000  0.000  0.000  0.000  0.000  0.023
   24  0.027  0.000  0.000  0.000  0.000  0.000  0.000  0.000  0.000  0.027
   25  0.028  0.000  0.000  0.000  0.000  0.000  0.000  0.000  0.000  0.028
   26  0.028  0.000  0.000  0.000  0.000  0.000  0.000  0.000  0.000  0.029
   27  0.041  0.000  0.000  0.000  0.000  0.000  0.000  0.000  0.000  0.041
   28  0.019  0.000  0.000  0.000  0.000  0.000  0.000  0.000  0.000  0.019
   29  0.038  0.000  0.000  0.000  0.000  0.000  0.000  0.000  0.000  0.038
   30  0.035  0.000  0.000  0.000  0.000  0.000  0.000  0.000  0.000  0.035
   31  0.019  0.000  0.000  0.000  0.000  0.000  0.000  0.000  0.000  0.019
tot    0.581  0.011  0.006  0.005  0.019  0.023  0.032  0.009  0.047  0.732

band     3 # energy  -10.70628456 # occ.  1.00000000

ion      s     py     pz     px    dxy    dyz    dz2    dxz  x2-y2    tot
    1  0.009  0.001  0.000  0.001  0.004  0.002  0.002  0.002  0.003  0.024
    2  0.006  0.001  0.000  0.000  0.001  0.003  0.002  0.001  0.004  0.017
    3  0.011  0.001  0.000  0.000  0.000  0.003  0.004  0.000  0.004  0.023
    4  0.002  0.002  0.000  0.003  0.012  0.005  0.001  0.011  0.012  0.048
    5  0.003  0.001  0.000  0.002  0.015  0.004  0.001  0.007  0.008  0.041
    6  0.001  0.001  0.000  0.001  0.006  0.003  0.000  0.003  0.005  0.020
    7  0.013  0.000  0.001  0.001  0.004  0.001  0.007  0.004  0.003  0.034
    8  0.007  0.000  0.001  0.001  0.004  0.001  0.004  0.002  0.001  0.021
    9  0.002  0.001  0.000  0.000  0.003  0.002  0.001  0.001  0.006  0.016
   10  0.003  0.001  0.000  0.001  0.005  0.001  0.003  0.002  0.005  0.021
   11  0.007  0.001  0.000  0.001  0.009  0.003  0.004  0.004  0.006  0.035
   12  0.008  0.000  0.001  0.000  0.001  0.000  0.009  0.001  0.001  0.021
   13  0.005  0.000  0.000  0.000  0.001  0.000  0.004  0.000  0.001  0.013
   14  0.004  0.000  0.000  0.000  0.002  0.001  0.003  0.001  0.002  0.014
   15  0.003  0.002  0.000  0.001  0.007  0.005  0.002  0.003  0.012  0.034
   16  0.002  0.000  0.000  0.000  0.000  0.000  0.000  0.000  0.000  0.002
   17  0.028  0.000  0.000  0.000  0.000  0.000  0.000  0.000  0.000  0.028
   18  0.019  0.000  0.000  0.000  0.000  0.000  0.000  0.000  0.000  0.019
   19  0.042  0.000  0.000  0.000  0.000  0.000  0.000  0.000  0.000  0.042
   20  0.003  0.000  0.000  0.000  0.000  0.000  0.000  0.000  0.000  0.003
   21  0.011  0.000  0.000  0.000  0.000  0.000  0.000  0.000  0.000  0.011
   22  0.002  0.000  0.000  0.000  0.000  0.000  0.000  0.000  0.000  0.002
   23  0.054  0.000  0.000  0.000  0.000  0.000  0.000  0.000  0.000  0.054
   24  0.044  0.000  0.000  0.000  0.000  0.000  0.000  0.000  0.000  0.045
   25  0.011  0.000  0.000  0.000  0.000  0.000  0.000  0.000  0.000  0.011
   26  0.018  0.000  0.000  0.000  0.000  0.000  0.000  0.000  0.000  0.018
   27  0.037  0.000  0.000  0.000  0.000  0.000  0.000  0.000  0.000  0.037
   28  0.062  0.000  0.000  0.000  0.000  0.000  0.000  0.000  0.000  0.062
   29  0.034  0.000  0.000  0.000  0.000  0.000  0.000  0.000  0.000  0.034
   30  0.017  0.000  0.000  0.000  0.000  0.000  0.000  0.000  0.000  0.017
   31  0.018  0.000  0.000  0.000  0.000  0.000  0.000  0.000  0.000  0.018
tot    0.486  0.011  0.006  0.013  0.074  0.034  0.047  0.044  0.072  0.787

band     4 # energy  -10.68257040 # occ.  1.00000000

ion      s     py     pz     px    dxy    dyz    dz2    dxz  x2-y2    tot
    1  0.002  0.001  0.000  0.003  0.017  0.003  0.001  0.008  0.009  0.044
    2  0.002  0.000  0.000  0.001  0.009  0.001  0.003  0.003  0.002  0.022
    3  0.001  0.001  0.000  0.000  0.001  0.004  0.005  0.000  0.006  0.017
    4  0.010  0.000  0.001  0.000  0.001  0.001  0.007  0.000  0.004  0.025
    5  0.014  0.000  0.000  0.001  0.004  0.001  0.002  0.002  0.002  0.027
    6  0.004  0.000  0.000  0.000  0.003  0.001  0.001  0.001  0.002  0.014
    7  0.002  0.002  0.000  0.001  0.006  0.007  0.001  0.005  0.021  0.044
    8  0.007  0.001  0.000  0.001  0.006  0.001  0.002  0.002  0.010  0.030
    9  0.008  0.000  0.000  0.000  0.000  0.001  0.004  0.000  0.001  0.015
   10  0.009  0.000  0.000  0.000  0.004  0.000  0.003  0.000  0.001  0.018
   11  0.002  0.001  0.001  0.001  0.006  0.001  0.007  0.003  0.002  0.024
   12  0.002  0.001  0.000  0.001  0.010  0.003  0.005  0.005  0.008  0.036
   13  0.000  0.002  0.000  0.001  0.005  0.005  0.003  0.003  0.011  0.030
   14  0.005  0.001  0.000  0.001  0.006  0.001  0.004  0.001  0.005  0.024
   15  0.008  0.000  0.001  0.000  0.003  0.000  0.012  0.001  0.000  0.026
   16  0.056  0.000  0.000  0.000  0.000  0.000  0.000  0.000  0.000  0.056
   17  0.014  0.000  0.000  0.000  0.000  0.000  0.000  0.000  0.000  0.014
   18  0.020  0.000  0.000  0.000  0.000  0.000  0.000  0.000  0.000  0.020
   19  0.009  0.000  0.000  0.000  0.000  0.000  0.000  0.000  0.000  0.009
   20  0.029  0.000  0.000  0.000  0.000  0.000  0.000  0.000  0.000  0.029
   21  0.040  0.000  0.000  0.000  0.000  0.000  0.000  0.000  0.000  0.040
   22  0.023  0.000  0.000  0.000  0.000  0.000  0.000  0.000  0.000  0.023
   23  0.007  0.000  0.000  0.000  0.000  0.000  0.000  0.000  0.000  0.007
   24  0.019  0.000  0.000  0.000  0.000  0.000  0.000  0.000  0.000  0.019
   25  0.029  0.000  0.000  0.000  0.000  0.000  0.000  0.000  0.000  0.029
   26  0.009  0.000  0.000  0.000  0.000  0.000  0.000  0.000  0.000  0.009
   27  0.038  0.000  0.000  0.000  0.000  0.000  0.000  0.000  0.000  0.038
   28  0.031  0.000  0.000  0.000  0.000  0.000  0.000  0.000  0.000  0.031
   29  0.011  0.000  0.000  0.000  0.000  0.000  0.000  0.000  0.000  0.011
   30  0.001  0.000  0.000  0.000  0.000  0.000  0.000  0.000  0.000  0.001
   31  0.061  0.000  0.000  0.000  0.000  0.000  0.000  0.000  0.000  0.061
tot    0.474  0.011  0.006  0.012  0.080  0.032  0.061  0.035  0.084  0.795

band     5 # energy  -10.62918289 # occ.  1.00000000

ion      s     py     pz     px    dxy    dyz    dz2    dxz  x2-y2    tot
    1  0.006  0.000  0.001  0.000  0.004  0.001  0.007  0.002  0.001  0.023
    2  0.007  0.000  0.000  0.000  0.006  0.001  0.003  0.001  0.000  0.019
    3  0.007  0.000  0.000  0.000  0.002  0.000  0.004  0.001  0.005  0.020
    4  0.001  0.000  0.002  0.001  0.006  0.001  0.020  0.003  0.003  0.037
    5  0.000  0.000  0.002  0.001  0.008  0.002  0.020  0.004  0.004  0.042
    6  0.000  0.000  0.001  0.001  0.007  0.001  0.009  0.004  0.002  0.025
    7  0.005  0.000  0.001  0.000  0.005  0.001  0.011  0.002  0.002  0.028
    8  0.008  0.001  0.001  0.000  0.003  0.000  0.019  0.001  0.004  0.037
    9  0.002  0.000  0.001  0.000  0.003  0.000  0.010  0.002  0.000  0.018
   10  0.002  0.001  0.001  0.001  0.011  0.001  0.012  0.002  0.004  0.034
   11  0.001  0.000  0.002  0.001  0.004  0.002  0.023  0.002  0.003  0.037
   12  0.005  0.000  0.001  0.001  0.007  0.001  0.010  0.003  0.002  0.030
   13  0.003  0.001  0.001  0.000  0.003  0.002  0.009  0.001  0.005  0.024
   14  0.005  0.000  0.001  0.001  0.007  0.000  0.016  0.000  0.000  0.030
   15  0.004  0.000  0.001  0.001  0.006  0.001  0.013  0.003  0.002  0.031
   16  0.067  0.000  0.000  0.000  0.000  0.000  0.000  0.000  0.000  0.067
   17  0.000  0.000  0.000  0.000  0.000  0.000  0.000  0.000  0.000  0.000
   18  0.001  0.000  0.000  0.000  0.000  0.000  0.000  0.000  0.000  0.001
   19  0.004  0.000  0.000  0.000  0.000  0.000  0.000  0.000  0.000  0.004
   20  0.047  0.000  0.000  0.000  0.000  0.000  0.000  0.000  0.000  0.047
   21  0.057  0.000  0.000  0.000  0.000  0.000  0.000  0.000  0.000  0.057
   22  0.021  0.000  0.000  0.000  0.000  0.000  0.000  0.000  0.000  0.021
   23  0.007  0.000  0.000  0.000  0.000  0.000  0.000  0.000  0.000  0.007
   24  0.002  0.000  0.000  0.000  0.000  0.000  0.000  0.000  0.000  0.002
   25  0.042  0.000  0.000  0.000  0.000  0.000  0.000  0.000  0.000  0.042
   26  0.027  0.000  0.000  0.000  0.000  0.000  0.000  0.000  0.000  0.028
   27  0.049  0.000  0.000  0.000  0.000  0.000  0.000  0.000  0.000  0.049
   28  0.003  0.000  0.000  0.000  0.000  0.000  0.000  0.000  0.000  0.003
   29  0.005  0.000  0.000  0.000  0.000  0.000  0.000  0.000  0.000  0.005
   30  0.004  0.000  0.000  0.000  0.000  0.000  0.000  0.000  0.000  0.004
   31  0.044  0.000  0.000  0.000  0.000  0.000  0.000  0.000  0.000  0.044
tot    0.439  0.004  0.014  0.010  0.081  0.013  0.185  0.031  0.037  0.815

band     6 # energy  -10.59869426 # occ.  1.00000000

ion      s     py     pz     px    dxy    dyz    dz2    dxz  x2-y2    tot
    1  0.001  0.001  0.002  0.000  0.001  0.004  0.020  0.000  0.009  0.038
    2  0.000  0.000  0.001  0.002  0.015  0.000  0.010  0.008  0.001  0.037
    3  0.000  0.001  0.000  0.000  0.003  0.004  0.004  0.001  0.003  0.018
    4  0.009  0.000  0.000  0.001  0.002  0.001  0.001  0.004  0.005  0.024
    5  0.002  0.001  0.001  0.000  0.004  0.004  0.017  0.002  0.008  0.039
    6  0.011  0.000  0.000  0.001  0.006  0.000  0.000  0.004  0.000  0.023
    7  0.000  0.000  0.001  0.002  0.010  0.001  0.012  0.011  0.005  0.043
    8  0.002  0.000  0.001  0.001  0.006  0.003  0.014  0.003  0.002  0.033
    9  0.007  0.001  0.001  0.001  0.006  0.002  0.010  0.002  0.005  0.035
   10  0.002  0.000  0.000  0.001  0.003  0.001  0.000  0.001  0.002  0.010
   11  0.003  0.000  0.001  0.000  0.003  0.000  0.010  0.001  0.000  0.018
   12  0.003  0.001  0.001  0.000  0.002  0.004  0.011  0.001  0.010  0.034
   13  0.002  0.000  0.001  0.001  0.010  0.001  0.017  0.006  0.003  0.042
   14  0.002  0.001  0.000  0.000  0.003  0.003  0.003  0.001  0.004  0.017
   15  0.008  0.000  0.000  0.001  0.011  0.000  0.003  0.005  0.000  0.028
   16  0.004  0.000  0.000  0.000  0.000  0.000  0.000  0.000  0.000  0.004
   17  0.065  0.000  0.000  0.000  0.000  0.000  0.000  0.000  0.000  0.065
   18  0.024  0.000  0.000  0.000  0.000  0.000  0.000  0.000  0.000  0.024
   19  0.013  0.000  0.000  0.000  0.000  0.000  0.000  0.000  0.000  0.013
   20  0.009  0.000  0.000  0.000  0.000  0.000  0.000  0.000  0.000  0.009
   21  0.017  0.000  0.000  0.000  0.000  0.000  0.000  0.000  0.000  0.017
   22  0.023  0.000  0.000  0.000  0.000  0.000  0.000  0.000  0.000  0.023
   23  0.026  0.000  0.000  0.000  0.000  0.000  0.000  0.000  0.000  0.026
   24  0.057  0.000  0.000  0.000  0.000  0.000  0.000  0.000  0.000  0.057
   25  0.019  0.000  0.000  0.000  0.000  0.000  0.000  0.000  0.000  0.019
   26  0.003  0.000  0.000  0.000  0.000  0.000  0.000  0.000  0.000  0.003
   27  0.015  0.000  0.000  0.000  0.000  0.000  0.000  0.000  0.000  0.015
   28  0.015  0.000  0.000  0.000  0.000  0.000  0.000  0.000  0.000  0.015
   29  0.063  0.000  0.000  0.000  0.000  0.000  0.000  0.000  0.000  0.063
   30  0.020  0.000  0.000  0.000  0.000  0.000  0.000  0.000  0.000  0.020
   31  0.005  0.000  0.000  0.000  0.000  0.000  0.000  0.000  0.000  0.005
tot    0.430  0.007  0.012  0.012  0.085  0.029  0.134  0.050  0.056  0.817

band     7 # energy  -10.55496103 # occ.  1.00000000

ion      s     py     pz     px    dxy    dyz    dz2    dxz  x2-y2    tot
    1  0.003  0.002  0.001  0.001  0.007  0.007  0.009  0.004  0.014  0.047
    2  0.001  0.001  0.001  0.000  0.003  0.003  0.011  0.002  0.005  0.027
    3  0.000  0.000  0.001  0.000  0.000  0.001  0.010  0.000  0.001  0.013
    4  0.001  0.001  0.001  0.000  0.000  0.006  0.011  0.000  0.016  0.037
    5  0.005  0.002  0.001  0.000  0.001  0.010  0.012  0.000  0.019  0.050
    6  0.003  0.001  0.001  0.000  0.002  0.002  0.010  0.001  0.004  0.022
    7  0.002  0.001  0.001  0.000  0.002  0.005  0.009  0.002  0.010  0.032
    8  0.001  0.003  0.001  0.000  0.001  0.006  0.011  0.000  0.026  0.049
    9  0.002  0.000  0.001  0.000  0.002  0.000  0.011  0.001  0.000  0.017
   10  0.006  0.001  0.000  0.001  0.005  0.001  0.006  0.001  0.005  0.026
   11  0.002  0.002  0.000  0.000  0.004  0.007  0.004  0.002  0.012  0.032
   12  0.001  0.001  0.002  0.000  0.003  0.003  0.023  0.001  0.005  0.039
   13  0.004  0.000  0.001  0.000  0.000  0.001  0.011  0.000  0.001  0.017
   14  0.004  0.001  0.000  0.000  0.004  0.002  0.007  0.001  0.010  0.029
   15  0.000  0.000  0.002  0.000  0.001  0.002  0.031  0.000  0.002  0.039
   16  0.055  0.000  0.000  0.000  0.000  0.000  0.000  0.000  0.000  0.055
   17  0.005  0.000  0.000  0.000  0.000  0.000  0.000  0.000  0.000  0.005
   18  0.010  0.000  0.000  0.000  0.000  0.000  0.000  0.000  0.000  0.010
   19  0.029  0.000  0.000  0.000  0.000  0.000  0.000  0.000  0.000  0.029
   20  0.032  0.000  0.000  0.000  0.000  0.000  0.000  0.000  0.000  0.032
   21  0.019  0.000  0.000  0.000  0.000  0.000  0.000  0.000  0.000  0.019
   22  0.007  0.000  0.000  0.000  0.000  0.000  0.000  0.000  0.000  0.007
   23  0.025  0.000  0.000  0.000  0.000  0.000  0.000  0.000  0.000  0.025
   24  0.011  0.000  0.000  0.000  0.000  0.000  0.000  0.000  0.000  0.011
   25  0.037  0.000  0.000  0.000  0.000  0.000  0.000  0.000  0.000  0.037
   26  0.001  0.000  0.000  0.000  0.000  0.000  0.000  0.000  0.000  0.001
   27  0.005  0.000  0.000  0.000  0.000  0.000  0.000  0.000  0.000  0.005
   28  0.042  0.000  0.000  0.000  0.000  0.000  0.000  0.000  0.000  0.042
   29  0.031  0.000  0.000  0.000  0.000  0.000  0.000  0.000  0.000  0.031
   30  0.001  0.000  0.000  0.000  0.000  0.000  0.000  0.000  0.000  0.001
   31  0.050  0.000  0.000  0.000  0.000  0.000  0.000  0.000  0.000  0.050
tot    0.396  0.015  0.013  0.004  0.033  0.054  0.174  0.015  0.132  0.836

band     8 # energy  -10.53748193 # occ.  1.00000000

ion      s     py     pz     px    dxy    dyz    dz2    dxz  x2-y2    tot
    1  0.002  0.001  0.001  0.002  0.016  0.004  0.007  0.008  0.010  0.049
    2  0.005  0.001  0.000  0.000  0.004  0.004  0.003  0.002  0.007  0.027
    3  0.005  0.000  0.000  0.000  0.002  0.001  0.004  0.001  0.000  0.015
    4  0.000  0.002  0.000  0.001  0.004  0.008  0.001  0.005  0.025  0.048
    5  0.001  0.002  0.000  0.002  0.017  0.007  0.006  0.008  0.014  0.057
    6  0.001  0.001  0.000  0.001  0.019  0.004  0.001  0.005  0.006  0.039
    7  0.003  0.000  0.000  0.001  0.005  0.001  0.005  0.006  0.003  0.025
    8  0.004  0.000  0.001  0.001  0.007  0.001  0.004  0.003  0.001  0.022
    9  0.001  0.001  0.000  0.001  0.006  0.005  0.006  0.003  0.010  0.033
   10  0.001  0.001  0.000  0.001  0.009  0.004  0.001  0.002  0.006  0.026
   11  0.000  0.001  0.000  0.000  0.003  0.006  0.001  0.001  0.012  0.025
   12  0.006  0.000  0.001  0.001  0.009  0.001  0.009  0.004  0.002  0.032
   13  0.003  0.000  0.001  0.001  0.008  0.001  0.013  0.004  0.002  0.032
   14  0.002  0.000  0.001  0.001  0.009  0.000  0.008  0.001  0.000  0.022
   15  0.000  0.002  0.001  0.000  0.001  0.007  0.007  0.000  0.015  0.033
   16  0.011  0.000  0.000  0.000  0.000  0.000  0.000  0.000  0.000  0.011
   17  0.024  0.000  0.000  0.000  0.000  0.000  0.000  0.000  0.000  0.024
   18  0.034  0.000  0.000  0.000  0.000  0.000  0.000  0.000  0.000  0.034
   19  0.028  0.000  0.000  0.000  0.000  0.000  0.000  0.000  0.000  0.028
   20  0.008  0.000  0.000  0.000  0.000  0.000  0.000  0.000  0.000  0.008
   21  0.019  0.000  0.000  0.000  0.000  0.000  0.000  0.000  0.000  0.019
   22  0.004  0.000  0.000  0.000  0.000  0.000  0.000  0.000  0.000  0.004
   23  0.022  0.000  0.000  0.000  0.000  0.000  0.000  0.000  0.000  0.022
   24  0.036  0.000  0.000  0.000  0.000  0.000  0.000  0.000  0.000  0.036
   25  0.024  0.000  0.000  0.000  0.000  0.000  0.000  0.000  0.000  0.024
   26  0.004  0.000  0.000  0.000  0.000  0.000  0.000  0.000  0.000  0.004
   27  0.002  0.000  0.000  0.000  0.000  0.000  0.000  0.000  0.000  0.002
   28  0.062  0.000  0.000  0.000  0.000  0.000  0.000  0.000  0.000  0.062
   29  0.037  0.000  0.000  0.000  0.000  0.000  0.000  0.000  0.000  0.037
   30  0.027  0.000  0.000  0.000  0.000  0.000  0.000  0.000  0.000  0.027
   31  0.014  0.000  0.000  0.000  0.000  0.000  0.000  0.000  0.000  0.014
tot    0.391  0.012  0.006  0.013  0.117  0.055  0.077  0.054  0.114  0.839

band     9 # energy  -10.50009956 # occ.  1.00000000

ion      s     py     pz     px    dxy    dyz    dz2    dxz  x2-y2    tot
    1  0.001  0.000  0.000  0.000  0.004  0.000  0.001  0.002  0.000  0.010
    2  0.002  0.001  0.000  0.000  0.000  0.004  0.002  0.000  0.005  0.015
    3  0.003  0.003  0.001  0.000  0.002  0.013  0.007  0.001  0.012  0.042
    4  0.000  0.000  0.002  0.002  0.015  0.001  0.026  0.010  0.001  0.058
    5  0.000  0.000  0.001  0.000  0.003  0.000  0.010  0.002  0.001  0.018
    6  0.001  0.000  0.002  0.000  0.000  0.001  0.023  0.000  0.001  0.029
    7  0.000  0.002  0.001  0.000  0.004  0.009  0.014  0.002  0.023  0.057
    8  0.000  0.001  0.001  0.001  0.006  0.006  0.008  0.003  0.019  0.045
    9  0.002  0.000  0.000  0.001  0.009  0.001  0.006  0.005  0.002  0.026
   10  0.002  0.000  0.001  0.000  0.005  0.001  0.009  0.003  0.004  0.027
   11  0.008  0.000  0.002  0.000  0.001  0.001  0.026  0.000  0.001  0.040
   12  0.000  0.002  0.000  0.000  0.001  0.009  0.001  0.001  0.016  0.029
   13  0.003  0.000  0.001  0.001  0.006  0.002  0.009  0.003  0.004  0.029
   14  0.001  0.001  0.001  0.001  0.012  0.006  0.005  0.004  0.014  0.044
   15  0.001  0.001  0.000  0.000  0.004  0.004  0.006  0.002  0.007  0.026
   16  0.027  0.000  0.000  0.000  0.000  0.000  0.000  0.000  0.000  0.027
   17  0.003  0.000  0.000  0.000  0.000  0.000  0.000  0.000  0.000  0.003
   18  0.002  0.000  0.000  0.000  0.000  0.000  0.000  0.000  0.000  0.002
   19  0.012  0.000  0.000  0.000  0.000  0.000  0.000  0.000  0.000  0.012
   20  0.047  0.000  0.000  0.000  0.000  0.000  0.000  0.000  0.000  0.047
   21  0.019  0.000  0.000  0.000  0.000  0.000  0.000  0.000  0.000  0.019
   22  0.066  0.000  0.000  0.000  0.000  0.000  0.000  0.000  0.000  0.066
   23  0.021  0.000  0.000  0.000  0.000  0.000  0.000  0.000  0.000  0.021
   24  0.016  0.000  0.000  0.000  0.000  0.000  0.000  0.000  0.000  0.016
   25  0.002  0.000  0.000  0.000  0.000  0.000  0.000  0.000  0.000  0.002
   26  0.033  0.000  0.000  0.000  0.000  0.000  0.000  0.000  0.000  0.033
   27  0.070  0.000  0.000  0.000  0.000  0.000  0.000  0.000  0.000  0.070
   28  0.001  0.000  0.000  0.000  0.000  0.000  0.000  0.000  0.000  0.001
   29  0.002  0.000  0.000  0.000  0.000  0.000  0.000  0.000  0.000  0.002
   30  0.010  0.000  0.000  0.000  0.000  0.000  0.000  0.000  0.000  0.010
   31  0.021  0.000  0.000  0.000  0.000  0.000  0.000  0.000  0.000  0.021
tot    0.377  0.013  0.013  0.008  0.074  0.057  0.155  0.037  0.112  0.846

band    10 # energy  -10.47372067 # occ.  1.00000000

ion      s     py     pz     px    dxy    dyz    dz2    dxz  x2-y2    tot
    1  0.000  0.000  0.001  0.001  0.013  0.000  0.011  0.007  0.001  0.036
    2  0.000  0.000  0.000  0.001  0.005  0.000  0.005  0.002  0.000  0.013
    3  0.000  0.000  0.001  0.000  0.001  0.001  0.007  0.000  0.004  0.015
    4  0.001  0.000  0.002  0.003  0.014  0.001  0.026  0.015  0.000  0.063
    5  0.001  0.000  0.001  0.001  0.008  0.002  0.019  0.005  0.004  0.042
    6  0.001  0.000  0.000  0.000  0.002  0.000  0.003  0.001  0.000  0.008
    7  0.001  0.000  0.001  0.002  0.012  0.003  0.017  0.014  0.012  0.062
    8  0.000  0.000  0.002  0.002  0.013  0.002  0.041  0.007  0.001  0.068
    9  0.000  0.001  0.000  0.000  0.004  0.003  0.005  0.001  0.007  0.022
   10  0.001  0.000  0.000  0.001  0.008  0.001  0.000  0.002  0.003  0.015
   11  0.000  0.000  0.001  0.002  0.019  0.001  0.013  0.010  0.002  0.047
   12  0.003  0.000  0.001  0.001  0.012  0.001  0.021  0.007  0.003  0.051
   13  0.000  0.001  0.001  0.000  0.001  0.005  0.008  0.000  0.010  0.027
   14  0.002  0.000  0.000  0.000  0.005  0.000  0.001  0.001  0.000  0.010
   15  0.002  0.000  0.001  0.002  0.015  0.002  0.009  0.009  0.004  0.045
   16  0.014  0.000  0.000  0.000  0.000  0.000  0.000  0.000  0.000  0.015
   17  0.025  0.000  0.000  0.000  0.000  0.000  0.000  0.000  0.000  0.025
   18  0.016  0.000  0.000  0.000  0.000  0.000  0.000  0.000  0.000  0.016
   19  0.013  0.000  0.000  0.000  0.000  0.000  0.000  0.000  0.000  0.013
   20  0.045  0.000  0.000  0.000  0.000  0.000  0.000  0.000  0.000  0.045
   21  0.036  0.000  0.000  0.000  0.000  0.000  0.000  0.000  0.000  0.036
   22  0.002  0.000  0.000  0.000  0.000  0.000  0.000  0.000  0.000  0.002
   23  0.030  0.000  0.000  0.000  0.000  0.000  0.000  0.000  0.000  0.030
   24  0.058  0.000  0.000  0.000  0.000  0.000  0.000  0.000  0.000  0.058
   25  0.007  0.000  0.000  0.000  0.000  0.000  0.000  0.000  0.000  0.007
   26  0.000  0.000  0.000  0.000  0.000  0.000  0.000  0.000  0.000  0.000
   27  0.022  0.000  0.000  0.000  0.000  0.000  0.000  0.000  0.000  0.022
   28  0.028  0.000  0.000  0.000  0.000  0.000  0.000  0.000  0.000  0.028
   29  0.011  0.000  0.000  0.000  0.000  0.000  0.000  0.000  0.000  0.011
   30  0.003  0.000  0.000  0.000  0.000  0.000  0.000  0.000  0.000  0.003
   31  0.022  0.000  0.000  0.000  0.000  0.000  0.000  0.000  0.000  0.022
tot    0.348  0.005  0.013  0.016  0.134  0.022  0.187  0.083  0.051  0.860

band    11 # energy  -10.46657345 # occ.  1.00000000

ion      s     py     pz     px    dxy    dyz    dz2    dxz  x2-y2    tot
    1  0.000  0.000  0.001  0.001  0.013  0.002  0.009  0.006  0.005  0.037
    2  0.001  0.000  0.001  0.001  0.008  0.003  0.010  0.003  0.003  0.030
    3  0.000  0.000  0.000  0.000  0.002  0.000  0.000  0.001  0.000  0.004
    4  0.001  0.001  0.000  0.001  0.004  0.005  0.004  0.006  0.017  0.039
    5  0.001  0.001  0.000  0.002  0.020  0.005  0.000  0.010  0.009  0.048
    6  0.000  0.000  0.001  0.001  0.007  0.001  0.012  0.003  0.002  0.027
    7  0.001  0.001  0.002  0.001  0.005  0.004  0.029  0.006  0.012  0.062
    8  0.001  0.002  0.001  0.002  0.014  0.002  0.016  0.007  0.017  0.062
    9  0.001  0.000  0.000  0.002  0.015  0.001  0.000  0.008  0.001  0.028
   10  0.001  0.001  0.000  0.001  0.007  0.003  0.001  0.001  0.010  0.025
   11  0.001  0.000  0.000  0.002  0.020  0.001  0.000  0.009  0.002  0.035
   12  0.000  0.000  0.001  0.000  0.002  0.001  0.017  0.001  0.002  0.023
   13  0.001  0.000  0.001  0.001  0.006  0.002  0.016  0.003  0.005  0.036
   14  0.003  0.000  0.000  0.001  0.006  0.001  0.004  0.001  0.002  0.018
   15  0.000  0.002  0.002  0.000  0.001  0.007  0.024  0.000  0.015  0.051
   16  0.031  0.000  0.000  0.000  0.000  0.000  0.000  0.000  0.000  0.031
   17  0.010  0.000  0.000  0.000  0.000  0.000  0.000  0.000  0.000  0.010
   18  0.030  0.000  0.000  0.000  0.000  0.000  0.000  0.000  0.000  0.030
   19  0.001  0.000  0.000  0.000  0.000  0.000  0.000  0.000  0.000  0.001
   20  0.015  0.000  0.000  0.000  0.000  0.000  0.000  0.000  0.000  0.015
   21  0.001  0.000  0.000  0.000  0.000  0.000  0.000  0.000  0.000  0.001
   22  0.026  0.000  0.000  0.000  0.000  0.000  0.000  0.000  0.000  0.026
   23  0.067  0.000  0.000  0.000  0.000  0.000  0.000  0.000  0.000  0.067
   24  0.034  0.000  0.000  0.000  0.000  0.000  0.000  0.000  0.000  0.034
   25  0.005  0.000  0.000  0.000  0.000  0.000  0.000  0.000  0.000  0.005
   26  0.008  0.000  0.000  0.000  0.000  0.000  0.000  0.000  0.000  0.008
   27  0.002  0.000  0.000  0.000  0.000  0.000  0.000  0.000  0.000  0.002
   28  0.029  0.000  0.000  0.000  0.000  0.000  0.000  0.000  0.000  0.029
   29  0.033  0.000  0.000  0.000  0.000  0.000  0.000  0.000  0.000  0.033
   30  0.001  0.000  0.000  0.000  0.000  0.000  0.000  0.000  0.000  0.001
   31  0.042  0.000  0.000  0.000  0.000  0.000  0.000  0.000  0.000  0.042
tot    0.348  0.010  0.010  0.014  0.130  0.037  0.142  0.066  0.102  0.860

band    12 # energy  -10.45074582 # occ.  1.00000000

ion      s     py     pz     px    dxy    dyz    dz2    dxz  x2-y2    tot
    1  0.000  0.002  0.000  0.000  0.001  0.008  0.002  0.000  0.017  0.031
    2  0.002  0.000  0.003  0.001  0.016  0.002  0.032  0.005  0.001  0.062
    3  0.001  0.002  0.001  0.000  0.001  0.013  0.008  0.000  0.007  0.034
    4  0.000  0.001  0.000  0.000  0.004  0.004  0.002  0.002  0.008  0.021
    5  0.001  0.000  0.002  0.000  0.002  0.000  0.031  0.001  0.000  0.037
    6  0.000  0.001  0.001  0.001  0.010  0.007  0.009  0.005  0.009  0.044
    7  0.000  0.000  0.000  0.001  0.006  0.001  0.004  0.004  0.001  0.017
    8  0.000  0.000  0.000  0.000  0.002  0.000  0.001  0.001  0.002  0.008
    9  0.003  0.001  0.002  0.001  0.007  0.003  0.026  0.003  0.006  0.051
   10  0.001  0.001  0.001  0.000  0.003  0.006  0.021  0.001  0.008  0.043
   11  0.000  0.000  0.001  0.000  0.000  0.000  0.019  0.000  0.001  0.022
   12  0.000  0.001  0.001  0.001  0.011  0.003  0.008  0.005  0.008  0.037
   13  0.001  0.003  0.000  0.000  0.004  0.018  0.002  0.002  0.036  0.066
   14  0.001  0.000  0.001  0.000  0.003  0.003  0.011  0.001  0.003  0.024
   15  0.001  0.001  0.000  0.001  0.006  0.005  0.004  0.003  0.010  0.030
   16  0.004  0.000  0.000  0.000  0.000  0.000  0.000  0.000  0.000  0.004
   17  0.003  0.000  0.000  0.000  0.000  0.000  0.000  0.000  0.000  0.003
   18  0.068  0.000  0.000  0.000  0.000  0.000  0.000  0.000  0.000  0.068
   19  0.010  0.000  0.000  0.000  0.000  0.000  0.000  0.000  0.000  0.010
   20  0.006  0.000  0.000  0.000  0.000  0.000  0.000  0.000  0.000  0.006