PROCAR lm decomposed
# of k-points:    2         # of bands:  216         # of ions:   31

 k-point     1 :    0.25000000 0.25000000 0.25000000     weight = 1.00000000

band     1 # energy  -11.17245209 # occ.  1.00000000

ion      s     py     pz     px    dxy    dyz    dz2    dxz  x2-y2    tot
    1  0.015  0.000  0.000  0.000  0.002  0.000  0.002  0.001  0.000  0.021
    2  0.011  0.000  0.000  0.000  0.001  0.000  0.001  0.000  0.000  0.014
    3  0.009  0.000  0.000  0.000  0.000  0.000  0.001  0.000  0.002  0.013
    4  0.015  0.000  0.001  0.000  0.001  0.000  0.002  0.001  0.000  0.021
    5  0.017  0.000  0.001  0.000  0.002  0.000  0.003  0.001  0.000  0.023
    6  0.009  0.000  0.000  0.000  0.001  0.000  0.001  0.001  0.001  0.013
    7  0.015  0.000  0.001  0.000  0.001  0.000  0.002  0.001  0.000  0.020
    8  0.011  0.000  0.000  0.000  0.001  0.001  0.001  0.001  0.001  0.015
    9  0.010  0.000  0.000  0.000  0.001  0.000  0.002  0.000  0.000  0.014
   10  0.007  0.000  0.000  0.000  0.000  0.000  0.002  0.000  0.000  0.011
   11  0.012  0.000  0.000  0.000  0.001  0.000  0.002  0.000  0.000  0.017
   12  0.016  0.000  0.001  0.000  0.001  0.000  0.003  0.001  0.000  0.022
   13  0.012  0.000  0.000  0.000  0.001  0.000  0.002  0.000  0.000  0.016
   14  0.007  0.000  0.000  0.000  0.001  0.000  0.001  0.001  0.000  0.009
   15  0.014  0.000  0.001  0.000  0.001  0.000  0.002  0.001  0.000  0.020
   16  0.013  0.000  0.000  0.000  0.000  0.000  0.000  0.000  0.000  0.013
   17  0.032  0.000  0.000  0.000  0.000  0.000  0.000  0.000  0.000  0.032
   18  0.023  0.000  0.000  0.000  0.000  0.000  0.000  0.000  0.000  0.023
   19  0.020  0.000  0.000  0.000  0.000  0.000  0.000  0.000  0.000  0.020
   20  0.033  0.000  0.000  0.000  0.000  0.000  0.000  0.000  0.000  0.033
   21  0.037  0.000  0.000  0.000  0.000  0.000  0.000  0.000  0.000  0.037
   22  0.020  0.000  0.000  0.000  0.000  0.000  0.000  0.000  0.000  0.020
   23  0.031  0.000  0.000  0.000  0.000  0.000  0.000  0.000  0.000  0.031
   24  0.027  0.000  0.000  0.000  0.000  0.000  0.000  0.000  0.000  0.028
   25  0.027  0.000  0.000  0.000  0.000  0.000  0.000  0.000  0.000  0.027
   26  0.017  0.000  0.000  0.000  0.000  0.000  0.000  0.000  0.000  0.017
   27  0.035  0.000  0.000  0.000  0.000  0.000  0.000  0.000  0.000  0.035
   28  0.051  0.000  0.000  0.000  0.000  0.000  0.000  0.000  0.000  0.051
   29  0.032  0.000  0.000  0.000  0.000  0.000  0.000  0.000  0.000  0.032
   30  0.012  0.000  0.000  0.000  0.000  0.000  0.000  0.000  0.000  0.012
   31  0.039  0.000  0.000  0.000  0.000  0.000  0.000  0.000  0.000  0.039
tot    0.627  0.002  0.007  0.005  0.014  0.003  0.027  0.008  0.006  0.699

band     2 # energy  -10.94829255 # occ.  1.00000000

ion      s     py     pz     px    dxy    dyz    dz2    dxz  x2-y2    tot
    1  0.005  0.001  0.000  0.000  0.001  0.002  0.001  0.000  0.004  0.015
    2  0.012  0.001  0.000  0.001  0.000  0.002  0.003  0.001  0.002  0.022
    3  0.013  0.001  0.001  0.000  0.000  0.003  0.003  0.000  0.004  0.026
    4  0.012  0.001  0.000  0.000  0.001  0.001  0.002  0.000  0.005  0.022
    5  0.005  0.001  0.000  0.000  0.001  0.003  0.001  0.001  0.006  0.018
    6  0.013  0.000  0.001  0.000  0.002  0.000  0.003  0.000  0.000  0.021
    7  0.008  0.001  0.000  0.001  0.003  0.001  0.001  0.002  0.004  0.021
    8  0.008  0.001  0.000  0.000  0.001  0.000  0.005  0.001  0.002  0.018
    9  0.009  0.001  0.000  0.000  0.002  0.001  0.002  0.001  0.003  0.019
   10  0.013  0.000  0.000  0.000  0.001  0.002  0.002  0.000  0.002  0.020
   11  0.012  0.001  0.001  0.000  0.001  0.001  0.003  0.001  0.003  0.023
   12  0.005  0.001  0.000  0.000  0.001  0.002  0.002  0.000  0.004  0.016
   13  0.010  0.001  0.000  0.000  0.001  0.001  0.002  0.000  0.003  0.019
   14  0.012  0.000  0.000  0.001  0.002  0.001  0.000  0.001  0.002  0.019
   15  0.004  0.001  0.000  0.000  0.001  0.002  0.001  0.000  0.003  0.012
   16  0.022  0.000  0.000  0.000  0.000  0.000  0.000  0.000  0.000  0.022
   17  0.013  0.000  0.000  0.000  0.000  0.000  0.000  0.000  0.000  0.013
   18  0.031  0.000  0.000  0.000  0.000  0.000  0.000  0.000  0.000  0.032
   19  0.041  0.000  0.000  0.000  0.000  0.000  0.000  0.000  0.000  0.041
   20  0.031  0.000  0.000  0.000  0.000  0.000  0.000  0.000  0.000  0.031
   21  0.014  0.000  0.000  0.000  0.000  0.000  0.000  0.000  0.000  0.014
   22  0.033  0.000  0.000  0.000  0.000  0.000  0.000  0.000  0.000  0.033
   23  0.022  0.000  0.000  0.000  0.000  0.000  0.000  0.000  0.000  0.022
   24  0.025  0.000  0.000  0.000  0.000  0.000  0.000  0.000  0.000  0.025
   25  0.030  0.000  0.000  0.000  0.000  0.000  0.000  0.000  0.000  0.030
   26  0.033  0.000  0.000  0.000  0.000  0.000  0.000  0.000  0.000  0.033
   27  0.043  0.000  0.000  0.000  0.000  0.000  0.000  0.000  0.000  0.043
   28  0.023  0.000  0.000  0.000  0.000  0.000  0.000  0.000  0.000  0.023
   29  0.036  0.000  0.000  0.000  0.000  0.000  0.000  0.000  0.000  0.036
   30  0.028  0.000  0.000  0.000  0.000  0.000  0.000  0.000  0.000  0.028
   31  0.014  0.000  0.000  0.000  0.000  0.000  0.000  0.000  0.000  0.014
tot    0.580  0.011  0.006  0.005  0.019  0.023  0.032  0.009  0.047  0.732

band     3 # energy  -10.71436476 # occ.  1.00000000

ion      s     py     pz     px    dxy    dyz    dz2    dxz  x2-y2    tot
    1  0.008  0.001  0.000  0.001  0.008  0.002  0.003  0.004  0.004  0.031
    2  0.005  0.001  0.000  0.000  0.001  0.002  0.001  0.001  0.003  0.015
    3  0.009  0.001  0.000  0.000  0.000  0.002  0.003  0.000  0.003  0.019
    4  0.003  0.002  0.000  0.003  0.010  0.008  0.002  0.010  0.018  0.055
    5  0.006  0.001  0.000  0.002  0.017  0.003  0.000  0.009  0.008  0.047
    6  0.001  0.001  0.000  0.001  0.004  0.002  0.000  0.002  0.003  0.014
    7  0.012  0.000  0.001  0.001  0.002  0.001  0.008  0.003  0.003  0.032
    8  0.009  0.000  0.000  0.001  0.004  0.000  0.002  0.002  0.001  0.021
    9  0.001  0.001  0.000  0.000  0.002  0.002  0.001  0.001  0.006  0.014
   10  0.002  0.001  0.000  0.001  0.005  0.001  0.004  0.002  0.004  0.020
   11  0.006  0.001  0.000  0.001  0.010  0.002  0.004  0.004  0.005  0.034
   12  0.008  0.000  0.001  0.000  0.001  0.001  0.016  0.001  0.001  0.030
   13  0.005  0.000  0.000  0.000  0.000  0.001  0.004  0.000  0.001  0.013
   14  0.003  0.000  0.000  0.000  0.001  0.001  0.002  0.001  0.002  0.011
   15  0.002  0.002  0.000  0.001  0.006  0.005  0.000  0.003  0.011  0.031
   16  0.004  0.000  0.000  0.000  0.000  0.000  0.000  0.000  0.000  0.004
   17  0.020  0.000  0.000  0.000  0.000  0.000  0.000  0.000  0.000  0.020
   18  0.016  0.000  0.000  0.000  0.000  0.000  0.000  0.000  0.000  0.016
   19  0.036  0.000  0.000  0.000  0.000  0.000  0.000  0.000  0.000  0.036
   20  0.004  0.000  0.000  0.000  0.000  0.000  0.000  0.000  0.000  0.004
   21  0.014  0.000  0.000  0.000  0.000  0.000  0.000  0.000  0.000  0.014
   22  0.004  0.000  0.000  0.000  0.000  0.000  0.000  0.000  0.000  0.004
   23  0.060  0.000  0.000  0.000  0.000  0.000  0.000  0.000  0.000  0.060
   24  0.043  0.000  0.000  0.000  0.000  0.000  0.000  0.000  0.000  0.043
   25  0.005  0.000  0.000  0.000  0.000  0.000  0.000  0.000  0.000  0.005
   26  0.017  0.000  0.000  0.000  0.000  0.000  0.000  0.000  0.000  0.017
   27  0.030  0.000  0.000  0.000  0.000  0.000  0.000  0.000  0.000  0.030
   28  0.098  0.000  0.000  0.000  0.000  0.000  0.000  0.000  0.000  0.098
   29  0.033  0.000  0.000  0.000  0.000  0.000  0.000  0.000  0.000  0.033
   30  0.010  0.000  0.000  0.000  0.000  0.000  0.000  0.000  0.000  0.010
   31  0.009  0.000  0.000  0.000  0.000  0.000  0.000  0.000  0.000  0.009
tot    0.482  0.012  0.006  0.013  0.075  0.034  0.050  0.043  0.074  0.789

band     4 # energy  -10.68530636 # occ.  1.00000000

ion      s     py     pz     px    dxy    dyz    dz2    dxz  x2-y2    tot
    1  0.003  0.001  0.000  0.002  0.014  0.004  0.004  0.007  0.010  0.047
    2  0.004  0.000  0.001  0.001  0.010  0.002  0.005  0.004  0.004  0.031
    3  0.003  0.001  0.001  0.000  0.002  0.004  0.004  0.001  0.006  0.021
    4  0.008  0.000  0.001  0.000  0.002  0.001  0.005  0.000  0.003  0.021
    5  0.013  0.000  0.000  0.001  0.004  0.001  0.002  0.002  0.001  0.024
    6  0.004  0.000  0.000  0.001  0.004  0.001  0.001  0.003  0.002  0.017
    7  0.002  0.002  0.000  0.001  0.005  0.006  0.001  0.003  0.015  0.035
    8  0.003  0.001  0.000  0.001  0.006  0.001  0.002  0.002  0.006  0.021
    9  0.011  0.000  0.001  0.000  0.000  0.001  0.004  0.000  0.002  0.020
   10  0.011  0.000  0.000  0.000  0.001  0.000  0.001  0.000  0.001  0.015
   11  0.002  0.001  0.001  0.001  0.005  0.002  0.008  0.002  0.003  0.024
   12  0.001  0.001  0.001  0.002  0.014  0.003  0.007  0.007  0.007  0.042
   13  0.000  0.002  0.000  0.001  0.007  0.005  0.002  0.003  0.012  0.033
   14  0.002  0.001  0.000  0.001  0.006  0.002  0.003  0.001  0.004  0.019
   15  0.011  0.000  0.001  0.000  0.003  0.000  0.008  0.001  0.001  0.026
   16  0.035  0.000  0.000  0.000  0.000  0.000  0.000  0.000  0.000  0.035
   17  0.027  0.000  0.000  0.000  0.000  0.000  0.000  0.000  0.000  0.027
   18  0.028  0.000  0.000  0.000  0.000  0.000  0.000  0.000  0.000  0.028
   19  0.011  0.000  0.000  0.000  0.000  0.000  0.000  0.000  0.000  0.011
   20  0.017  0.000  0.000  0.000  0.000  0.000  0.000  0.000  0.000  0.017
   21  0.047  0.000  0.000  0.000  0.000  0.000  0.000  0.000  0.000  0.047
   22  0.020  0.000  0.000  0.000  0.000  0.000  0.000  0.000  0.000  0.020
   23  0.011  0.000  0.000  0.000  0.000  0.000  0.000  0.000  0.000  0.011
   24  0.008  0.000  0.000  0.000  0.000  0.000  0.000  0.000  0.000  0.008
   25  0.043  0.000  0.000  0.000  0.000  0.000  0.000  0.000  0.000  0.043
   26  0.023  0.000  0.000  0.000  0.000  0.000  0.000  0.000  0.000  0.023
   27  0.044  0.000  0.000  0.000  0.000  0.000  0.000  0.000  0.000  0.044
   28  0.029  0.000  0.000  0.000  0.000  0.000  0.000  0.000  0.000  0.029
   29  0.008  0.000  0.000  0.000  0.000  0.000  0.000  0.000  0.000  0.008
   30  0.001  0.000  0.000  0.000  0.000  0.000  0.000  0.000  0.000  0.001
   31  0.046  0.000  0.000  0.000  0.000  0.000  0.000  0.000  0.000  0.046
tot    0.475  0.011  0.006  0.013  0.084  0.033  0.058  0.037  0.077  0.793

band     5 # energy  -10.62922689 # occ.  1.00000000

ion      s     py     pz     px    dxy    dyz    dz2    dxz  x2-y2    tot
    1  0.008  0.000  0.000  0.000  0.003  0.001  0.006  0.001  0.002  0.021
    2  0.006  0.000  0.000  0.000  0.008  0.000  0.003  0.002  0.000  0.020
    3  0.006  0.000  0.001  0.000  0.002  0.001  0.005  0.001  0.006  0.022
    4  0.000  0.000  0.002  0.001  0.006  0.001  0.027  0.003  0.002  0.042
    5  0.000  0.000  0.002  0.001  0.005  0.001  0.024  0.002  0.003  0.038
    6  0.000  0.000  0.001  0.001  0.006  0.001  0.010  0.003  0.002  0.024
    7  0.006  0.000  0.001  0.001  0.007  0.000  0.009  0.003  0.001  0.028
    8  0.009  0.000  0.001  0.000  0.003  0.000  0.016  0.001  0.003  0.033
    9  0.001  0.000  0.001  0.001  0.003  0.000  0.015  0.002  0.001  0.025
   10  0.001  0.001  0.001  0.001  0.010  0.001  0.014  0.002  0.004  0.035
   11  0.002  0.000  0.002  0.001  0.005  0.001  0.024  0.003  0.003  0.041
   12  0.006  0.000  0.001  0.001  0.006  0.001  0.013  0.002  0.002  0.031
   13  0.005  0.000  0.001  0.000  0.001  0.001  0.008  0.000  0.003  0.020
   14  0.006  0.000  0.000  0.001  0.005  0.000  0.013  0.000  0.000  0.025
   15  0.002  0.000  0.001  0.001  0.007  0.001  0.014  0.004  0.002  0.033
   16  0.062  0.000  0.000  0.000  0.000  0.000  0.000  0.000  0.000  0.062
   17  0.001  0.000  0.000  0.000  0.000  0.000  0.000  0.000  0.000  0.001
   18  0.003  0.000  0.000  0.000  0.000  0.000  0.000  0.000  0.000  0.003
   19  0.007  0.000  0.000  0.000  0.000  0.000  0.000  0.000  0.000  0.007
   20  0.052  0.000  0.000  0.000  0.000  0.000  0.000  0.000  0.000  0.052
   21  0.054  0.000  0.000  0.000  0.000  0.000  0.000  0.000  0.000  0.054
   22  0.019  0.000  0.000  0.000  0.000  0.000  0.000  0.000  0.000  0.019
   23  0.007  0.000  0.000  0.000  0.000  0.000  0.000  0.000  0.000  0.007
   24  0.001  0.000  0.000  0.000  0.000  0.000  0.000  0.000  0.000  0.001
   25  0.050  0.000  0.000  0.000  0.000  0.000  0.000  0.000  0.000  0.050
   26  0.021  0.000  0.000  0.000  0.000  0.000  0.000  0.000  0.000  0.022
   27  0.056  0.000  0.000  0.000  0.000  0.000  0.000  0.000  0.000  0.056
   28  0.004  0.000  0.000  0.000  0.000  0.000  0.000  0.000  0.000  0.004
   29  0.001  0.000  0.000  0.000  0.000  0.000  0.000  0.000  0.000  0.001
   30  0.001  0.000  0.000  0.000  0.000  0.000  0.000  0.000  0.000  0.001
   31  0.040  0.000  0.000  0.000  0.000  0.000  0.000  0.000  0.000  0.040
tot    0.437  0.004  0.015  0.009  0.075  0.011  0.202  0.029  0.033  0.816

band     6 # energy  -10.59981333 # occ.  1.00000000

ion      s     py     pz     px    dxy    dyz    dz2    dxz  x2-y2    tot
    1  0.001  0.001  0.002  0.000  0.002  0.003  0.025  0.001  0.007  0.042
    2  0.000  0.000  0.001  0.002  0.012  0.000  0.011  0.007  0.001  0.034
    3  0.000  0.001  0.000  0.000  0.002  0.004  0.001  0.001  0.002  0.012
    4  0.009  0.000  0.000  0.000  0.002  0.001  0.001  0.004  0.004  0.021
    5  0.001  0.001  0.002  0.001  0.006  0.003  0.022  0.003  0.007  0.046
    6  0.011  0.000  0.000  0.001  0.005  0.000  0.000  0.004  0.000  0.021
    7  0.000  0.000  0.001  0.002  0.008  0.001  0.009  0.008  0.005  0.033
    8  0.002  0.000  0.001  0.001  0.007  0.003  0.008  0.004  0.004  0.030
    9  0.006  0.001  0.001  0.001  0.006  0.003  0.009  0.003  0.007  0.037
   10  0.002  0.000  0.000  0.001  0.004  0.001  0.002  0.000  0.003  0.013
   11  0.002  0.000  0.001  0.000  0.003  0.001  0.006  0.001  0.001  0.014
   12  0.003  0.002  0.001  0.000  0.002  0.006  0.017  0.001  0.014  0.046
   13  0.002  0.001  0.001  0.002  0.012  0.002  0.017  0.006  0.005  0.047
   14  0.004  0.000  0.000  0.001  0.003  0.002  0.004  0.000  0.002  0.016
   15  0.009  0.000  0.000  0.001  0.011  0.000  0.002  0.005  0.000  0.029
   16  0.015  0.000  0.000  0.000  0.000  0.000  0.000  0.000  0.000  0.015
   17  0.070  0.000  0.000  0.000  0.000  0.000  0.000  0.000  0.000  0.070
   18  0.021  0.000  0.000  0.000  0.000  0.000  0.000  0.000  0.000  0.021
   19  0.005  0.000  0.000  0.000  0.000  0.000  0.000  0.000  0.000  0.005
   20  0.015  0.000  0.000  0.000  0.000  0.000  0.000  0.000  0.000  0.015
   21  0.026  0.000  0.000  0.000  0.000  0.000  0.000  0.000  0.000  0.026
   22  0.029  0.000  0.000  0.000  0.000  0.000  0.000  0.000  0.000  0.029
   23  0.020  0.000  0.000  0.000  0.000  0.000  0.000  0.000  0.000  0.020
   24  0.042  0.000  0.000  0.000  0.000  0.000  0.000  0.000  0.000  0.043
   25  0.012  0.000  0.000  0.000  0.000  0.000  0.000  0.000  0.000  0.012
   26  0.005  0.000  0.000  0.000  0.000  0.000  0.000  0.000  0.000  0.006
   27  0.010  0.000  0.000  0.000  0.000  0.000  0.000  0.000  0.000  0.010
   28  0.022  0.000  0.000  0.000  0.000  0.000  0.000  0.000  0.000  0.022
   29  0.060  0.000  0.000  0.000  0.000  0.000  0.000  0.000  0.000  0.060
   30  0.016  0.000  0.000  0.000  0.000  0.000  0.000  0.000  0.000  0.016
   31  0.006  0.000  0.000  0.000  0.000  0.000  0.000  0.000  0.000  0.006
tot    0.429  0.008  0.012  0.012  0.083  0.031  0.134  0.046  0.061  0.817

band     7 # energy  -10.55852804 # occ.  1.00000000

ion      s     py     pz     px    dxy    dyz    dz2    dxz  x2-y2    tot
    1  0.004  0.001  0.000  0.001  0.010  0.004  0.002  0.004  0.009  0.035
    2  0.001  0.000  0.001  0.001  0.005  0.002  0.010  0.003  0.004  0.028
    3  0.002  0.000  0.001  0.000  0.000  0.001  0.017  0.000  0.001  0.021
    4  0.002  0.002  0.001  0.000  0.001  0.011  0.012  0.003  0.031  0.064
    5  0.002  0.003  0.000  0.000  0.002  0.015  0.005  0.001  0.030  0.059
    6  0.003  0.001  0.000  0.000  0.001  0.002  0.005  0.001  0.005  0.018
    7  0.004  0.001  0.000  0.001  0.004  0.002  0.001  0.005  0.006  0.023
    8  0.000  0.002  0.001  0.000  0.001  0.005  0.018  0.001  0.020  0.049
    9  0.001  0.000  0.000  0.000  0.001  0.000  0.007  0.001  0.001  0.011
   10  0.005  0.001  0.000  0.001  0.007  0.003  0.004  0.003  0.007  0.031
   11  0.002  0.002  0.000  0.001  0.006  0.008  0.005  0.003  0.015  0.042
   12  0.001  0.001  0.002  0.000  0.000  0.004  0.029  0.000  0.007  0.043
   13  0.004  0.000  0.001  0.000  0.001  0.000  0.009  0.001  0.000  0.016
   14  0.006  0.001  0.000  0.000  0.001  0.002  0.006  0.001  0.007  0.025
   15  0.000  0.000  0.001  0.000  0.001  0.001  0.009  0.000  0.001  0.013
   16  0.035  0.000  0.000  0.000  0.000  0.000  0.000  0.000  0.000  0.035
   17  0.001  0.000  0.000  0.000  0.000  0.000  0.000  0.000  0.000  0.001
   18  0.014  0.000  0.000  0.000  0.000  0.000  0.000  0.000  0.000  0.014
   19  0.059  0.000  0.000  0.000  0.000  0.000  0.000  0.000  0.000  0.059
   20  0.039  0.000  0.000  0.000  0.000  0.000  0.000  0.000  0.000  0.039
   21  0.003  0.000  0.000  0.000  0.000  0.000  0.000  0.000  0.000  0.003
   22  0.001  0.000  0.000  0.000  0.000  0.000  0.000  0.000  0.000  0.001
   23  0.010  0.000  0.000  0.000  0.000  0.000  0.000  0.000  0.000  0.010
   24  0.038  0.000  0.000  0.000  0.000  0.000  0.000  0.000  0.000  0.039
   25  0.017  0.000  0.000  0.000  0.000  0.000  0.000  0.000  0.000  0.017
   26  0.001  0.000  0.000  0.000  0.000  0.000  0.000  0.000  0.000  0.001
   27  0.004  0.000  0.000  0.000  0.000  0.000  0.000  0.000  0.000  0.004
   28  0.068  0.000  0.000  0.000  0.000  0.000  0.000  0.000  0.000  0.068
   29  0.049  0.000  0.000  0.000  0.000  0.000  0.000  0.000  0.000  0.050
   30  0.000  0.000  0.000  0.000  0.000  0.000  0.000  0.000  0.000  0.000
   31  0.019  0.000  0.000  0.000  0.000  0.000  0.000  0.000  0.000  0.019
tot    0.395  0.015  0.010  0.006  0.042  0.060  0.139  0.026  0.145  0.838

band     8 # energy  -10.53847196 # occ.  1.00000000

ion      s     py     pz     px    dxy    dyz    dz2    dxz  x2-y2    tot
    1  0.000  0.002  0.001  0.001  0.012  0.007  0.010  0.006  0.015  0.054
    2  0.004  0.002  0.000  0.000  0.002  0.007  0.003  0.001  0.012  0.032
    3  0.005  0.000  0.000  0.000  0.000  0.001  0.002  0.000  0.000  0.009
    4  0.001  0.001  0.001  0.000  0.003  0.004  0.009  0.003  0.012  0.035
    5  0.004  0.000  0.001  0.001  0.014  0.002  0.008  0.007  0.004  0.040
    6  0.001  0.000  0.000  0.001  0.017  0.002  0.004  0.005  0.003  0.035
    7  0.002  0.001  0.001  0.001  0.005  0.002  0.013  0.005  0.003  0.032
    8  0.005  0.000  0.000  0.001  0.010  0.002  0.003  0.004  0.003  0.029
    9  0.002  0.001  0.001  0.001  0.006  0.004  0.012  0.003  0.007  0.035
   10  0.003  0.000  0.000  0.001  0.007  0.002  0.002  0.002  0.002  0.019
   11  0.001  0.001  0.000  0.000  0.001  0.006  0.005  0.001  0.013  0.028
   12  0.004  0.001  0.000  0.001  0.012  0.004  0.001  0.006  0.007  0.037
   13  0.002  0.000  0.001  0.000  0.005  0.002  0.015  0.002  0.003  0.030
   14  0.001  0.000  0.000  0.001  0.009  0.000  0.005  0.001  0.001  0.019
   15  0.000  0.002  0.001  0.000  0.001  0.008  0.018  0.000  0.018  0.049
   16  0.018  0.000  0.000  0.000  0.000  0.000  0.000  0.000  0.000  0.018
   17  0.027  0.000  0.000  0.000  0.000  0.000  0.000  0.000  0.000  0.027
   18  0.019  0.000  0.000  0.000  0.000  0.000  0.000  0.000  0.000  0.019
   19  0.015  0.000  0.000  0.000  0.000  0.000  0.000  0.000  0.000  0.015
   20  0.032  0.000  0.000  0.000  0.000  0.000  0.000  0.000  0.000  0.032
   21  0.032  0.000  0.000  0.000  0.000  0.000  0.000  0.000  0.000  0.032
   22  0.005  0.000  0.000  0.000  0.000  0.000  0.000  0.000  0.000  0.005
   23  0.024  0.000  0.000  0.000  0.000  0.000  0.000  0.000  0.000  0.024
   24  0.027  0.000  0.000  0.000  0.000  0.000  0.000  0.000  0.000  0.027
   25  0.044  0.000  0.000  0.000  0.000  0.000  0.000  0.000  0.000  0.044
   26  0.012  0.000  0.000  0.000  0.000  0.000  0.000  0.000  0.000  0.012
   27  0.003  0.000  0.000  0.000  0.000  0.000  0.000  0.000  0.000  0.003
   28  0.020  0.000  0.000  0.000  0.000  0.000  0.000  0.000  0.000  0.020
   29  0.025  0.000  0.000  0.000  0.000  0.000  0.000  0.000  0.000  0.025
   30  0.015  0.000  0.000  0.000  0.000  0.000  0.000  0.000  0.000  0.016
   31  0.036  0.000  0.000  0.000  0.000  0.000  0.000  0.000  0.000  0.036
tot    0.391  0.012  0.009  0.012  0.104  0.052  0.110  0.047  0.103  0.838

band     9 # energy  -10.50161672 # occ.  1.00000000

ion      s     py     pz     px    dxy    dyz    dz2    dxz  x2-y2    tot
    1  0.002  0.000  0.000  0.000  0.004  0.000  0.003  0.002  0.000  0.011
    2  0.003  0.001  0.000  0.000  0.001  0.006  0.001  0.000  0.008  0.020
    3  0.002  0.003  0.000  0.000  0.006  0.015  0.006  0.002  0.015  0.050
    4  0.000  0.000  0.001  0.002  0.016  0.002  0.018  0.011  0.002  0.052
    5  0.000  0.000  0.001  0.000  0.002  0.000  0.010  0.001  0.001  0.016
    6  0.001  0.000  0.002  0.000  0.000  0.000  0.026  0.000  0.000  0.030
    7  0.000  0.002  0.001  0.001  0.008  0.008  0.009  0.004  0.019  0.052
    8  0.001  0.001  0.000  0.001  0.003  0.004  0.003  0.002  0.015  0.030
    9  0.002  0.000  0.000  0.002  0.014  0.002  0.004  0.007  0.004  0.036
   10  0.004  0.000  0.001  0.000  0.005  0.001  0.012  0.003  0.002  0.029
   11  0.006  0.000  0.002  0.000  0.001  0.000  0.029  0.000  0.000  0.039
   12  0.000  0.001  0.000  0.000  0.003  0.006  0.000  0.002  0.012  0.026
   13  0.004  0.001  0.000  0.001  0.009  0.003  0.005  0.004  0.007  0.034
   14  0.002  0.002  0.000  0.001  0.010  0.006  0.003  0.002  0.016  0.042
   15  0.001  0.000  0.000  0.001  0.009  0.002  0.005  0.004  0.002  0.024
   16  0.026  0.000  0.000  0.000  0.000  0.000  0.000  0.000  0.000  0.026
   17  0.013  0.000  0.000  0.000  0.000  0.000  0.000  0.000  0.000  0.013
   18  0.003  0.000  0.000  0.000  0.000  0.000  0.000  0.000  0.000  0.003
   19  0.010  0.000  0.000  0.000  0.000  0.000  0.000  0.000  0.000  0.010
   20  0.030  0.000  0.000  0.000  0.000  0.000  0.000  0.000  0.000  0.030
   21  0.018  0.000  0.000  0.000  0.000  0.000  0.000  0.000  0.000  0.018
   22  0.080  0.000  0.000  0.000  0.000  0.000  0.000  0.000  0.000  0.080
   23  0.011  0.000  0.000  0.000  0.000  0.000  0.000  0.000  0.000  0.011
   24  0.008  0.000  0.000  0.000  0.000  0.000  0.000  0.000  0.000  0.008
   25  0.001  0.000  0.000  0.000  0.000  0.000  0.000  0.000  0.000  0.001
   26  0.048  0.000  0.000  0.000  0.000  0.000  0.000  0.000  0.000  0.049
   27  0.081  0.000  0.000  0.000  0.000  0.000  0.000  0.000  0.000  0.081
   28  0.001  0.000  0.000  0.000  0.000  0.000  0.000  0.000  0.000  0.001
   29  0.000  0.000  0.000  0.000  0.000  0.000  0.000  0.000  0.000  0.000
   30  0.002  0.000  0.000  0.000  0.000  0.000  0.000  0.000  0.000  0.002
   31  0.020  0.000  0.000  0.000  0.000  0.000  0.000  0.000  0.000  0.020
tot    0.379  0.013  0.011  0.010  0.092  0.056  0.134  0.045  0.105  0.845

band    10 # energy  -10.47759114 # occ.  1.00000000

ion      s     py     pz     px    dxy    dyz    dz2    dxz  x2-y2    tot
    1  0.000  0.000  0.001  0.002  0.015  0.000  0.022  0.008  0.000  0.050
    2  0.000  0.000  0.000  0.001  0.005  0.000  0.007  0.003  0.000  0.017
    3  0.001  0.000  0.000  0.000  0.000  0.000  0.002  0.000  0.001  0.003
    4  0.000  0.000  0.002  0.001  0.005  0.002  0.021  0.007  0.004  0.041
    5  0.002  0.000  0.001  0.001  0.014  0.000  0.018  0.008  0.000  0.045
    6  0.001  0.000  0.000  0.000  0.004  0.000  0.004  0.002  0.000  0.012
    7  0.002  0.000  0.002  0.001  0.003  0.002  0.032  0.005  0.005  0.053
    8  0.001  0.000  0.001  0.002  0.020  0.002  0.021  0.010  0.000  0.057
    9  0.000  0.001  0.000  0.000  0.001  0.007  0.007  0.000  0.015  0.032
   10  0.000  0.001  0.000  0.000  0.002  0.002  0.001  0.000  0.005  0.010
   11  0.001  0.000  0.000  0.003  0.025  0.000  0.005  0.013  0.000  0.047
   12  0.003  0.000  0.002  0.001  0.012  0.000  0.028  0.007  0.001  0.054
   13  0.002  0.001  0.001  0.000  0.002  0.004  0.009  0.001  0.009  0.027
   14  0.000  0.000  0.000  0.000  0.001  0.001  0.001  0.000  0.002  0.006
   15  0.002  0.001  0.001  0.002  0.019  0.006  0.018  0.011  0.012  0.071
   16  0.006  0.000  0.000  0.000  0.000  0.000  0.000  0.000  0.000  0.006
   17  0.041  0.000  0.000  0.000  0.000  0.000  0.000  0.000  0.000  0.041
   18  0.019  0.000  0.000  0.000  0.000  0.000  0.000  0.000  0.000  0.019
   19  0.001  0.000  0.000  0.000  0.000  0.000  0.000  0.000  0.000  0.001
   20  0.037  0.000  0.000  0.000  0.000  0.000  0.000  0.000  0.000  0.037
   21  0.032  0.000  0.000  0.000  0.000  0.000  0.000  0.000  0.000  0.032
   22  0.007  0.000  0.000  0.000  0.000  0.000  0.000  0.000  0.000  0.007
   23  0.068  0.000  0.000  0.000  0.000  0.000  0.000  0.000  0.000  0.068
   24  0.025  0.000  0.000  0.000  0.000  0.000  0.000  0.000  0.000  0.025
   25  0.008  0.000  0.000  0.000  0.000  0.000  0.000  0.000  0.000  0.008
   26  0.001  0.000  0.000  0.000  0.000  0.000  0.000  0.000  0.000  0.001
   27  0.005  0.000  0.000  0.000  0.000  0.000  0.000  0.000  0.000  0.005
   28  0.031  0.000  0.000  0.000  0.000  0.000  0.000  0.000  0.000  0.031
   29  0.014  0.000  0.000  0.000  0.000  0.000  0.000  0.000  0.000  0.014
   30  0.004  0.000  0.000  0.000  0.000  0.000  0.000  0.000  0.000  0.004
   31  0.032  0.000  0.000  0.000  0.000  0.000  0.000  0.000  0.000  0.032
tot    0.346  0.005  0.014  0.015  0.129  0.027  0.194  0.074  0.055  0.859

band    11 # energy  -10.46293019 # occ.  1.00000000

ion      s     py     pz     px    dxy    dyz    dz2    dxz  x2-y2    tot
    1  0.001  0.000  0.000  0.001  0.010  0.001  0.004  0.005  0.003  0.024
    2  0.002  0.000  0.002  0.000  0.005  0.002  0.023  0.002  0.003  0.040
    3  0.000  0.000  0.000  0.000  0.003  0.001  0.001  0.001  0.001  0.007
    4  0.001  0.000  0.000  0.001  0.008  0.001  0.000  0.009  0.007  0.028
    5  0.001  0.001  0.000  0.001  0.012  0.006  0.006  0.006  0.011  0.044
    6  0.000  0.000  0.001  0.001  0.004  0.000  0.008  0.003  0.000  0.017
    7  0.001  0.002  0.002  0.001  0.004  0.008  0.025  0.005  0.021  0.068
    8  0.001  0.002  0.001  0.001  0.008  0.003  0.020  0.004  0.017  0.058
    9  0.002  0.000  0.000  0.002  0.019  0.001  0.000  0.010  0.001  0.035
   10  0.000  0.002  0.000  0.000  0.006  0.008  0.002  0.001  0.022  0.042
   11  0.002  0.000  0.000  0.001  0.012  0.001  0.001  0.005  0.002  0.024
   12  0.000  0.000  0.000  0.001  0.007  0.000  0.002  0.003  0.001  0.014
   13  0.001  0.001  0.001  0.001  0.009  0.007  0.015  0.005  0.014  0.054
   14  0.004  0.000  0.000  0.000  0.004  0.000  0.002  0.000  0.000  0.012
   15  0.000  0.002  0.002  0.000  0.004  0.007  0.024  0.002  0.015  0.056
   16  0.031  0.000  0.000  0.000  0.000  0.000  0.000  0.000  0.000  0.031
   17  0.006  0.000  0.000  0.000  0.000  0.000  0.000  0.000  0.000  0.006
   18  0.067  0.000  0.000  0.000  0.000  0.000  0.000  0.000  0.000  0.067
   19  0.001  0.000  0.000  0.000  0.000  0.000  0.000  0.000  0.000  0.001
   20  0.002  0.000  0.000  0.000  0.000  0.000  0.000  0.000  0.000  0.002
   21  0.019  0.000  0.000  0.000  0.000  0.000  0.000  0.000  0.000  0.019
   22  0.014  0.000  0.000  0.000  0.000  0.000  0.000  0.000  0.000  0.014
   23  0.057  0.000  0.000  0.000  0.000  0.000  0.000  0.000  0.000  0.057
   24  0.045  0.000  0.000  0.000  0.000  0.000  0.000  0.000  0.000  0.045
   25  0.001  0.000  0.000  0.000  0.000  0.000  0.000  0.000  0.000  0.001
   26  0.008  0.000  0.000  0.000  0.000  0.000  0.000  0.000  0.000  0.008
   27  0.005  0.000  0.000  0.000  0.000  0.000  0.000  0.000  0.000  0.005
   28  0.005  0.000  0.000  0.000  0.000  0.000  0.000  0.000  0.000  0.005
   29  0.026  0.000  0.000  0.000  0.000  0.000  0.000  0.000  0.000  0.026
   30  0.003  0.000  0.000  0.000  0.000  0.000  0.000  0.000  0.000  0.003
   31  0.047  0.000  0.000  0.000  0.000  0.000  0.000  0.000  0.000  0.047
tot    0.352  0.012  0.010  0.013  0.113  0.046  0.134  0.062  0.119  0.858

band    12 # energy  -10.45826374 # occ.  1.00000000

ion      s     py     pz     px    dxy    dyz    dz2    dxz  x2-y2    tot
    1  0.001  0.002  0.000  0.000  0.000  0.010  0.007  0.000  0.022  0.043
    2  0.002  0.000  0.003  0.002  0.024  0.001  0.036  0.008  0.001  0.077
    3  0.000  0.001  0.001  0.000  0.001  0.007  0.009  0.000  0.005  0.024
    4  0.000  0.001  0.000  0.000  0.003  0.003  0.001  0.002  0.007  0.016
    5  0.000  0.000  0.002  0.000  0.002  0.001  0.026  0.001  0.003  0.037
    6  0.000  0.001  0.000  0.002  0.018  0.004  0.003  0.009  0.005  0.042
    7  0.001  0.000  0.000  0.001  0.006  0.000  0.004  0.004  0.001  0.016
    8  0.000  0.001  0.000  0.000  0.002  0.000  0.002  0.001  0.006  0.013
    9  0.002  0.001  0.002  0.001  0.006  0.003  0.036  0.003  0.006  0.060
   10  0.002  0.001  0.001  0.001  0.007  0.006  0.019  0.001  0.008  0.045
   11  0.000  0.000  0.001  0.000  0.001  0.000  0.016  0.000  0.000  0.019
   12  0.000  0.000  0.000  0.001  0.014  0.001  0.005  0.007  0.003  0.032
   13  0.000  0.002  0.001  0.001  0.009  0.011  0.011  0.005  0.023  0.063
   14  0.001  0.000  0.000  0.001  0.005  0.001  0.002  0.001  0.001  0.013
   15  0.001  0.001  0.000  0.000  0.004  0.006  0.002  0.002  0.012  0.030
   16  0.012  0.000  0.000  0.000  0.000  0.000  0.000  0.000  0.000  0.012
   17  0.013  0.000  0.000  0.000  0.000  0.000  0.000  0.000  0.000  0.013
   18  0.068  0.000  0.000  0.000  0.000  0.000  0.000  0.000  0.000  0.068
   19  0.014  0.000  0.000  0.000  0.000  0.000  0.000  0.000  0.000  0.014
   20  0.002  0.000  0.000  0.000  0.000  0.000  0.000  0.000  0.000  0.002