PROCAR lm decomposed
# of k-points:    2         # of bands:  216         # of ions:   31

 k-point     1 :    0.25000000 0.25000000 0.25000000     weight = 1.00000000

band     1 # energy  -11.18580957 # occ.  1.00000000

ion      s     py     pz     px    dxy    dyz    dz2    dxz  x2-y2    tot
    1  0.021  0.000  0.001  0.001  0.002  0.000  0.004  0.001  0.000  0.030
    2  0.008  0.000  0.000  0.000  0.001  0.000  0.001  0.000  0.000  0.011
    3  0.004  0.000  0.000  0.000  0.000  0.000  0.000  0.000  0.001  0.007
    4  0.012  0.000  0.000  0.000  0.001  0.000  0.002  0.001  0.000  0.017
    5  0.023  0.000  0.001  0.001  0.002  0.000  0.003  0.001  0.000  0.031
    6  0.007  0.000  0.000  0.000  0.001  0.000  0.001  0.000  0.001  0.011
    7  0.013  0.000  0.000  0.000  0.000  0.000  0.002  0.000  0.000  0.018
    8  0.007  0.000  0.000  0.000  0.001  0.000  0.001  0.000  0.001  0.011
    9  0.012  0.000  0.000  0.000  0.001  0.000  0.002  0.000  0.001  0.017
   10  0.003  0.000  0.000  0.000  0.000  0.000  0.001  0.000  0.000  0.005
   11  0.009  0.000  0.000  0.000  0.001  0.000  0.001  0.000  0.001  0.014
   12  0.021  0.000  0.001  0.001  0.002  0.000  0.004  0.001  0.000  0.029
   13  0.013  0.000  0.000  0.000  0.000  0.000  0.002  0.000  0.001  0.018
   14  0.003  0.000  0.000  0.000  0.000  0.000  0.000  0.000  0.000  0.005
   15  0.021  0.000  0.001  0.001  0.002  0.000  0.004  0.001  0.000  0.030
   16  0.004  0.000  0.000  0.000  0.000  0.000  0.000  0.000  0.000  0.004
   17  0.053  0.000  0.000  0.000  0.000  0.000  0.000  0.000  0.000  0.053
   18  0.019  0.000  0.000  0.000  0.000  0.000  0.000  0.000  0.000  0.019
   19  0.009  0.000  0.000  0.000  0.000  0.000  0.000  0.000  0.000  0.009
   20  0.030  0.000  0.000  0.000  0.000  0.000  0.000  0.000  0.000  0.030
   21  0.055  0.000  0.000  0.000  0.000  0.000  0.000  0.000  0.000  0.055
   22  0.017  0.000  0.000  0.000  0.000  0.000  0.000  0.000  0.000  0.018
   23  0.031  0.000  0.000  0.000  0.000  0.000  0.000  0.000  0.000  0.031
   24  0.014  0.000  0.000  0.000  0.000  0.000  0.000  0.000  0.000  0.014
   25  0.028  0.000  0.000  0.000  0.000  0.000  0.000  0.000  0.000  0.028
   26  0.005  0.000  0.000  0.000  0.000  0.000  0.000  0.000  0.000  0.005
   27  0.024  0.000  0.000  0.000  0.000  0.000  0.000  0.000  0.000  0.024
   28  0.058  0.000  0.000  0.000  0.000  0.000  0.000  0.000  0.000  0.058
   29  0.032  0.000  0.000  0.000  0.000  0.000  0.000  0.000  0.000  0.032
   30  0.005  0.000  0.000  0.000  0.000  0.000  0.000  0.000  0.000  0.005
   31  0.059  0.000  0.000  0.000  0.000  0.000  0.000  0.000  0.000  0.059
tot    0.620  0.003  0.007  0.005  0.016  0.004  0.029  0.008  0.008  0.698

band     2 # energy  -10.90786199 # occ.  1.00000000

ion      s     py     pz     px    dxy    dyz    dz2    dxz  x2-y2    tot
    1  0.003  0.001  0.000  0.000  0.001  0.003  0.001  0.000  0.007  0.018
    2  0.011  0.000  0.001  0.000  0.001  0.001  0.003  0.001  0.001  0.019
    3  0.013  0.001  0.001  0.000  0.000  0.001  0.003  0.000  0.004  0.023
    4  0.012  0.000  0.000  0.000  0.003  0.001  0.002  0.001  0.004  0.024
    5  0.002  0.002  0.000  0.000  0.001  0.004  0.001  0.000  0.008  0.019
    6  0.014  0.000  0.001  0.000  0.002  0.000  0.004  0.000  0.000  0.021
    7  0.009  0.001  0.000  0.001  0.004  0.001  0.002  0.002  0.004  0.024
    8  0.008  0.000  0.000  0.000  0.002  0.000  0.003  0.001  0.001  0.016
    9  0.010  0.001  0.000  0.000  0.003  0.002  0.003  0.001  0.004  0.025
   10  0.009  0.000  0.000  0.000  0.001  0.001  0.002  0.000  0.001  0.016
   11  0.017  0.000  0.001  0.000  0.001  0.001  0.005  0.001  0.002  0.029
   12  0.003  0.001  0.000  0.000  0.001  0.004  0.001  0.000  0.008  0.020
   13  0.011  0.001  0.000  0.000  0.002  0.002  0.003  0.001  0.004  0.024
   14  0.011  0.000  0.000  0.000  0.002  0.001  0.001  0.001  0.001  0.017
   15  0.002  0.001  0.000  0.000  0.001  0.004  0.001  0.000  0.008  0.016
   16  0.011  0.000  0.000  0.000  0.000  0.000  0.000  0.000  0.000  0.012
   17  0.011  0.000  0.000  0.000  0.000  0.000  0.000  0.000  0.000  0.011
   18  0.036  0.000  0.000  0.000  0.000  0.000  0.000  0.000  0.000  0.036
   19  0.042  0.000  0.000  0.000  0.000  0.000  0.000  0.000  0.000  0.042
   20  0.041  0.000  0.000  0.000  0.000  0.000  0.000  0.000  0.000  0.041
   21  0.009  0.000  0.000  0.000  0.000  0.000  0.000  0.000  0.000  0.009
   22  0.043  0.000  0.000  0.000  0.000  0.000  0.000  0.000  0.000  0.043
   23  0.032  0.000  0.000  0.000  0.000  0.000  0.000  0.000  0.000  0.032
   24  0.015  0.000  0.000  0.000  0.000  0.000  0.000  0.000  0.000  0.015
   25  0.034  0.000  0.000  0.000  0.000  0.000  0.000  0.000  0.000  0.034
   26  0.016  0.000  0.000  0.000  0.000  0.000  0.000  0.000  0.000  0.016
   27  0.058  0.000  0.000  0.000  0.000  0.000  0.000  0.000  0.000  0.058
   28  0.014  0.000  0.000  0.000  0.000  0.000  0.000  0.000  0.000  0.014
   29  0.037  0.000  0.000  0.000  0.000  0.000  0.000  0.000  0.000  0.037
   30  0.020  0.000  0.000  0.000  0.000  0.000  0.000  0.000  0.000  0.021
   31  0.009  0.000  0.000  0.000  0.000  0.000  0.000  0.000  0.000  0.009
tot    0.564  0.011  0.006  0.005  0.023  0.027  0.034  0.009  0.060  0.738

band     3 # energy  -10.74644874 # occ.  1.00000000

ion      s     py     pz     px    dxy    dyz    dz2    dxz  x2-y2    tot
    1  0.010  0.000  0.001  0.003  0.026  0.000  0.014  0.013  0.000  0.068
    2  0.002  0.000  0.000  0.001  0.005  0.000  0.001  0.002  0.000  0.013
    3  0.001  0.000  0.000  0.000  0.000  0.000  0.000  0.000  0.001  0.003
    4  0.004  0.001  0.000  0.000  0.001  0.003  0.002  0.001  0.007  0.019
    5  0.010  0.000  0.000  0.004  0.025  0.001  0.004  0.013  0.002  0.059
    6  0.001  0.000  0.000  0.001  0.008  0.000  0.000  0.003  0.000  0.014
    7  0.008  0.001  0.000  0.000  0.001  0.002  0.002  0.001  0.005  0.021
    8  0.002  0.000  0.000  0.001  0.006  0.000  0.000  0.003  0.000  0.012
    9  0.006  0.002  0.000  0.000  0.002  0.005  0.001  0.001  0.013  0.031
   10  0.001  0.000  0.000  0.000  0.000  0.000  0.000  0.000  0.001  0.003
   11  0.001  0.000  0.000  0.001  0.010  0.000  0.002  0.004  0.000  0.020
   12  0.010  0.000  0.001  0.003  0.027  0.000  0.006  0.013  0.000  0.060
   13  0.006  0.000  0.000  0.000  0.001  0.002  0.004  0.001  0.004  0.019
   14  0.000  0.000  0.000  0.000  0.000  0.000  0.000  0.000  0.000  0.001
   15  0.010  0.000  0.001  0.003  0.027  0.001  0.013  0.012  0.002  0.071
   16  0.001  0.000  0.000  0.000  0.000  0.000  0.000  0.000  0.000  0.001
   17  0.090  0.000  0.000  0.000  0.000  0.000  0.000  0.000  0.000  0.090
   18  0.010  0.000  0.000  0.000  0.000  0.000  0.000  0.000  0.000  0.010
   19  0.002  0.000  0.000  0.000  0.000  0.000  0.000  0.000  0.000  0.002
   20  0.014  0.000  0.000  0.000  0.000  0.000  0.000  0.000  0.000  0.014
   21  0.042  0.000  0.000  0.000  0.000  0.000  0.000  0.000  0.000  0.042
   22  0.002  0.000  0.000  0.000  0.000  0.000  0.000  0.000  0.000  0.002
   23  0.034  0.000  0.000  0.000  0.000  0.000  0.000  0.000  0.000  0.034
   24  0.003  0.000  0.000  0.000  0.000  0.000  0.000  0.000  0.000  0.003
   25  0.015  0.000  0.000  0.000  0.000  0.000  0.000  0.000  0.000  0.015
   26  0.001  0.000  0.000  0.000  0.000  0.000  0.000  0.000  0.000  0.001
   27  0.009  0.000  0.000  0.000  0.000  0.000  0.000  0.000  0.000  0.009
   28  0.060  0.000  0.000  0.000  0.000  0.000  0.000  0.000  0.000  0.060
   29  0.032  0.000  0.000  0.000  0.000  0.000  0.000  0.000  0.000  0.033
   30  0.001  0.000  0.000  0.000  0.000  0.000  0.000  0.000  0.000  0.001
   31  0.067  0.000  0.000  0.000  0.000  0.000  0.000  0.000  0.000  0.067
tot    0.455  0.005  0.005  0.020  0.140  0.015  0.051  0.068  0.037  0.797

band     4 # energy  -10.69654601 # occ.  1.00000000

ion      s     py     pz     px    dxy    dyz    dz2    dxz  x2-y2    tot
    1  0.003  0.002  0.000  0.001  0.006  0.010  0.001  0.003  0.025  0.051
    2  0.006  0.000  0.000  0.000  0.003  0.001  0.003  0.001  0.001  0.016
    3  0.005  0.001  0.000  0.000  0.000  0.002  0.004  0.000  0.004  0.017
    4  0.002  0.002  0.001  0.001  0.005  0.007  0.005  0.003  0.016  0.040
    5  0.010  0.002  0.000  0.000  0.002  0.007  0.002  0.001  0.015  0.039
    6  0.004  0.000  0.000  0.000  0.000  0.001  0.002  0.000  0.003  0.012
    7  0.003  0.002  0.001  0.000  0.002  0.006  0.007  0.000  0.015  0.036
    8  0.005  0.000  0.000  0.000  0.001  0.000  0.000  0.000  0.002  0.009
    9  0.006  0.001  0.000  0.000  0.001  0.004  0.002  0.001  0.008  0.024
   10  0.005  0.001  0.000  0.000  0.001  0.001  0.002  0.000  0.002  0.013
   11  0.010  0.001  0.000  0.000  0.002  0.002  0.003  0.001  0.004  0.022
   12  0.003  0.001  0.001  0.001  0.006  0.006  0.017  0.003  0.013  0.051
   13  0.002  0.002  0.000  0.000  0.003  0.008  0.001  0.002  0.018  0.036
   14  0.003  0.001  0.000  0.000  0.002  0.002  0.000  0.001  0.003  0.012
   15  0.001  0.002  0.001  0.000  0.002  0.008  0.013  0.001  0.018  0.046
   16  0.004  0.000  0.000  0.000  0.000  0.000  0.000  0.000  0.000  0.004
   17  0.011  0.000  0.000  0.000  0.000  0.000  0.000  0.000  0.000  0.011
   18  0.034  0.000  0.000  0.000  0.000  0.000  0.000  0.000  0.000  0.034
   19  0.028  0.000  0.000  0.000  0.000  0.000  0.000  0.000  0.000  0.028
   20  0.018  0.000  0.000  0.000  0.000  0.000  0.000  0.000  0.000  0.018
   21  0.043  0.000  0.000  0.000  0.000  0.000  0.000  0.000  0.000  0.043
   22  0.024  0.000  0.000  0.000  0.000  0.000  0.000  0.000  0.000  0.024
   23  0.026  0.000  0.000  0.000  0.000  0.000  0.000  0.000  0.000  0.026
   24  0.009  0.000  0.000  0.000  0.000  0.000  0.000  0.000  0.000  0.009
   25  0.025  0.000  0.000  0.000  0.000  0.000  0.000  0.000  0.000  0.025
   26  0.010  0.000  0.000  0.000  0.000  0.000  0.000  0.000  0.000  0.010
   27  0.041  0.000  0.000  0.000  0.000  0.000  0.000  0.000  0.000  0.041
   28  0.060  0.000  0.000  0.000  0.000  0.000  0.000  0.000  0.000  0.060
   29  0.007  0.000  0.000  0.000  0.000  0.000  0.000  0.000  0.000  0.007
   30  0.004  0.000  0.000  0.000  0.000  0.000  0.000  0.000  0.000  0.005
   31  0.035  0.000  0.000  0.000  0.000  0.000  0.000  0.000  0.000  0.036
tot    0.448  0.018  0.006  0.005  0.037  0.064  0.062  0.016  0.147  0.803

band     5 # energy  -10.66868276 # occ.  1.00000000

ion      s     py     pz     px    dxy    dyz    dz2    dxz  x2-y2    tot
    1  0.006  0.000  0.004  0.000  0.001  0.000  0.057  0.001  0.001  0.071
    2  0.003  0.000  0.000  0.000  0.002  0.001  0.003  0.001  0.001  0.012
    3  0.001  0.000  0.000  0.000  0.000  0.000  0.001  0.000  0.001  0.003
    4  0.003  0.000  0.001  0.000  0.001  0.001  0.011  0.000  0.001  0.019
    5  0.003  0.000  0.005  0.001  0.007  0.000  0.058  0.004  0.001  0.079
    6  0.003  0.000  0.000  0.000  0.001  0.001  0.004  0.001  0.001  0.012
    7  0.003  0.001  0.001  0.000  0.001  0.003  0.012  0.000  0.004  0.024
    8  0.001  0.000  0.000  0.000  0.001  0.001  0.004  0.001  0.001  0.010
    9  0.001  0.001  0.001  0.000  0.000  0.004  0.021  0.000  0.007  0.036
   10  0.000  0.000  0.000  0.000  0.000  0.000  0.001  0.000  0.000  0.002
   11  0.001  0.000  0.001  0.000  0.001  0.001  0.010  0.000  0.001  0.016
   12  0.008  0.000  0.003  0.001  0.005  0.002  0.048  0.003  0.004  0.073
   13  0.002  0.001  0.001  0.000  0.000  0.006  0.017  0.000  0.011  0.039
   14  0.000  0.000  0.000  0.000  0.000  0.000  0.001  0.000  0.000  0.001
   15  0.009  0.000  0.003  0.001  0.007  0.002  0.046  0.004  0.004  0.075
   16  0.001  0.000  0.000  0.000  0.000  0.000  0.000  0.000  0.000  0.001
   17  0.059  0.000  0.000  0.000  0.000  0.000  0.000  0.000  0.000  0.059
   18  0.002  0.000  0.000  0.000  0.000  0.000  0.000  0.000  0.000  0.002
   19  0.001  0.000  0.000  0.000  0.000  0.000  0.000  0.000  0.000  0.001
   20  0.020  0.000  0.000  0.000  0.000  0.000  0.000  0.000  0.000  0.020
   21  0.091  0.000  0.000  0.000  0.000  0.000  0.000  0.000  0.000  0.091
   22  0.001  0.000  0.000  0.000  0.000  0.000  0.000  0.000  0.000  0.001
   23  0.014  0.000  0.000  0.000  0.000  0.000  0.000  0.000  0.000  0.014
   24  0.002  0.000  0.000  0.000  0.000  0.000  0.000  0.000  0.000  0.002
   25  0.032  0.000  0.000  0.000  0.000  0.000  0.000  0.000  0.000  0.032
   26  0.002  0.000  0.000  0.000  0.000  0.000  0.000  0.000  0.000  0.002
   27  0.010  0.000  0.000  0.000  0.000  0.000  0.000  0.000  0.000  0.010
   28  0.040  0.000  0.000  0.000  0.000  0.000  0.000  0.000  0.000  0.040
   29  0.018  0.000  0.000  0.000  0.000  0.000  0.000  0.000  0.000  0.018
   30  0.001  0.000  0.000  0.000  0.000  0.000  0.000  0.000  0.000  0.001
   31  0.061  0.000  0.000  0.000  0.000  0.000  0.000  0.000  0.000  0.061
tot    0.399  0.005  0.021  0.004  0.027  0.022  0.295  0.015  0.039  0.826

band     6 # energy  -10.63009956 # occ.  1.00000000

ion      s     py     pz     px    dxy    dyz    dz2    dxz  x2-y2    tot
    1  0.002  0.001  0.001  0.002  0.027  0.004  0.022  0.013  0.008  0.079
    2  0.001  0.000  0.000  0.001  0.007  0.000  0.001  0.003  0.000  0.014
    3  0.001  0.000  0.000  0.000  0.001  0.001  0.000  0.000  0.001  0.004
    4  0.006  0.000  0.001  0.000  0.002  0.001  0.009  0.002  0.002  0.024
    5  0.001  0.001  0.001  0.002  0.022  0.006  0.010  0.011  0.011  0.066
    6  0.003  0.000  0.000  0.001  0.005  0.000  0.002  0.003  0.000  0.014
    7  0.004  0.001  0.000  0.001  0.004  0.003  0.001  0.003  0.007  0.023
    8  0.004  0.000  0.000  0.001  0.004  0.000  0.001  0.002  0.000  0.013
    9  0.005  0.001  0.000  0.001  0.007  0.004  0.003  0.004  0.009  0.034
   10  0.000  0.000  0.000  0.000  0.001  0.000  0.000  0.000  0.001  0.003
   11  0.001  0.000  0.000  0.002  0.014  0.000  0.003  0.007  0.001  0.027
   12  0.001  0.002  0.001  0.002  0.022  0.010  0.015  0.010  0.019  0.082
   13  0.005  0.000  0.000  0.001  0.006  0.001  0.002  0.003  0.004  0.023
   14  0.001  0.000  0.000  0.000  0.001  0.001  0.001  0.000  0.002  0.005
   15  0.002  0.001  0.001  0.003  0.029  0.004  0.017  0.013  0.007  0.077
   16  0.003  0.000  0.000  0.000  0.000  0.000  0.000  0.000  0.000  0.003
   17  0.067  0.000  0.000  0.000  0.000  0.000  0.000  0.000  0.000  0.067
   18  0.009  0.000  0.000  0.000  0.000  0.000  0.000  0.000  0.000  0.009
   19  0.001  0.000  0.000  0.000  0.000  0.000  0.000  0.000  0.000  0.001
   20  0.038  0.000  0.000  0.000  0.000  0.000  0.000  0.000  0.000  0.038
   21  0.034  0.000  0.000  0.000  0.000  0.000  0.000  0.000  0.000  0.034
   22  0.021  0.000  0.000  0.000  0.000  0.000  0.000  0.000  0.000  0.021
   23  0.019  0.000  0.000  0.000  0.000  0.000  0.000  0.000  0.000  0.019
   24  0.007  0.000  0.000  0.000  0.000  0.000  0.000  0.000  0.000  0.007
   25  0.016  0.000  0.000  0.000  0.000  0.000  0.000  0.000  0.000  0.016
   26  0.002  0.000  0.000  0.000  0.000  0.000  0.000  0.000  0.000  0.002
   27  0.013  0.000  0.000  0.000  0.000  0.000  0.000  0.000  0.000  0.013
   28  0.042  0.000  0.000  0.000  0.000  0.000  0.000  0.000  0.000  0.042
   29  0.020  0.000  0.000  0.000  0.000  0.000  0.000  0.000  0.000  0.020
   30  0.002  0.000  0.000  0.000  0.000  0.000  0.000  0.000  0.000  0.002
   31  0.054  0.000  0.000  0.000  0.000  0.000  0.000  0.000  0.000  0.054
tot    0.383  0.008  0.006  0.016  0.151  0.035  0.087  0.074  0.074  0.835

band     7 # energy  -10.56338118 # occ.  1.00000000

ion      s     py     pz     px    dxy    dyz    dz2    dxz  x2-y2    tot
    1  0.001  0.001  0.000  0.001  0.012  0.006  0.006  0.006  0.013  0.047
    2  0.001  0.001  0.000  0.001  0.003  0.003  0.004  0.002  0.005  0.020
    3  0.007  0.000  0.001  0.000  0.001  0.000  0.005  0.000  0.003  0.018
    4  0.001  0.001  0.002  0.001  0.007  0.003  0.023  0.004  0.007  0.048
    5  0.001  0.000  0.001  0.001  0.013  0.001  0.010  0.007  0.002  0.036
    6  0.003  0.001  0.000  0.000  0.001  0.002  0.003  0.000  0.004  0.015
    7  0.001  0.001  0.001  0.001  0.007  0.003  0.015  0.004  0.006  0.039
    8  0.007  0.001  0.000  0.000  0.000  0.002  0.004  0.000  0.003  0.017
    9  0.000  0.000  0.001  0.001  0.006  0.003  0.014  0.003  0.005  0.033
   10  0.004  0.000  0.000  0.000  0.003  0.001  0.000  0.001  0.002  0.011
   11  0.001  0.002  0.001  0.001  0.012  0.010  0.016  0.006  0.020  0.070
   12  0.000  0.001  0.001  0.001  0.011  0.008  0.021  0.005  0.015  0.063
   13  0.000  0.000  0.001  0.001  0.005  0.002  0.008  0.003  0.004  0.024
   14  0.002  0.000  0.000  0.001  0.005  0.000  0.001  0.001  0.001  0.011
   15  0.000  0.002  0.001  0.000  0.003  0.012  0.009  0.002  0.022  0.050
   16  0.002  0.000  0.000  0.000  0.000  0.000  0.000  0.000  0.000  0.002
   17  0.015  0.000  0.000  0.000  0.000  0.000  0.000  0.000  0.000  0.015
   18  0.019  0.000  0.000  0.000  0.000  0.000  0.000  0.000  0.000  0.019
   19  0.029  0.000  0.000  0.000  0.000  0.000  0.000  0.000  0.000  0.029
   20  0.051  0.000  0.000  0.000  0.000  0.000  0.000  0.000  0.000  0.051
   21  0.023  0.000  0.000  0.000  0.000  0.000  0.000  0.000  0.000  0.023
   22  0.006  0.000  0.000  0.000  0.000  0.000  0.000  0.000  0.000  0.006
   23  0.044  0.000  0.000  0.000  0.000  0.000  0.000  0.000  0.000  0.044
   24  0.002  0.000  0.000  0.000  0.000  0.000  0.000  0.000  0.000  0.002
   25  0.032  0.000  0.000  0.000  0.000  0.000  0.000  0.000  0.000  0.032
   26  0.007  0.000  0.000  0.000  0.000  0.000  0.000  0.000  0.000  0.007
   27  0.041  0.000  0.000  0.000  0.000  0.000  0.000  0.000  0.000  0.041
   28  0.038  0.000  0.000  0.000  0.000  0.000  0.000  0.000  0.000  0.038
   29  0.008  0.000  0.000  0.000  0.000  0.000  0.000  0.000  0.000  0.008
   30  0.009  0.000  0.000  0.000  0.000  0.000  0.000  0.000  0.000  0.009
   31  0.015  0.000  0.000  0.000  0.000  0.000  0.000  0.000  0.000  0.015
tot    0.371  0.012  0.010  0.010  0.089  0.056  0.140  0.044  0.112  0.843

band     8 # energy  -10.54163386 # occ.  1.00000000

ion      s     py     pz     px    dxy    dyz    dz2    dxz  x2-y2    tot
    1  0.001  0.001  0.001  0.001  0.004  0.007  0.018  0.003  0.015  0.051
    2  0.006  0.001  0.000  0.001  0.011  0.002  0.001  0.004  0.003  0.030
    3  0.000  0.000  0.000  0.000  0.001  0.001  0.004  0.000  0.002  0.010
    4  0.001  0.000  0.000  0.000  0.002  0.001  0.001  0.001  0.003  0.009
    5  0.001  0.001  0.002  0.000  0.003  0.005  0.026  0.002  0.010  0.052
    6  0.002  0.000  0.001  0.003  0.028  0.001  0.015  0.012  0.001  0.063
    7  0.002  0.000  0.001  0.000  0.002  0.001  0.015  0.001  0.002  0.024
    8  0.001  0.000  0.000  0.001  0.006  0.000  0.002  0.003  0.001  0.014
    9  0.003  0.001  0.001  0.001  0.014  0.005  0.021  0.007  0.010  0.063
   10  0.000  0.000  0.000  0.000  0.001  0.001  0.001  0.000  0.002  0.006
   11  0.000  0.001  0.001  0.001  0.007  0.003  0.010  0.003  0.005  0.030
   12  0.001  0.000  0.000  0.001  0.014  0.000  0.004  0.008  0.000  0.028
   13  0.000  0.001  0.002  0.001  0.011  0.005  0.033  0.005  0.011  0.071
   14  0.006  0.000  0.000  0.000  0.000  0.001  0.001  0.000  0.003  0.012
   15  0.002  0.000  0.001  0.001  0.016  0.002  0.015  0.008  0.004  0.050
   16  0.004  0.000  0.000  0.000  0.000  0.000  0.000  0.000  0.000  0.004
   17  0.025  0.000  0.000  0.000  0.000  0.000  0.000  0.000  0.000  0.025
   18  0.004  0.000  0.000  0.000  0.000  0.000  0.000  0.000  0.000  0.004
   19  0.010  0.000  0.000  0.000  0.000  0.000  0.000  0.000  0.000  0.010
   20  0.002  0.000  0.000  0.000  0.000  0.000  0.000  0.000  0.000  0.002
   21  0.032  0.000  0.000  0.000  0.000  0.000  0.000  0.000  0.000  0.032
   22  0.056  0.000  0.000  0.000  0.000  0.000  0.000  0.000  0.000  0.056
   23  0.038  0.000  0.000  0.000  0.000  0.000  0.000  0.000  0.000  0.038
   24  0.001  0.000  0.000  0.000  0.000  0.000  0.000  0.000  0.000  0.001
   25  0.059  0.000  0.000  0.000  0.000  0.000  0.000  0.000  0.000  0.059
   26  0.001  0.000  0.000  0.000  0.000  0.000  0.000  0.000  0.000  0.001
   27  0.017  0.000  0.000  0.000  0.000  0.000  0.000  0.000  0.000  0.017
   28  0.003  0.000  0.000  0.000  0.000  0.000  0.000  0.000  0.000  0.003
   29  0.063  0.000  0.000  0.000  0.000  0.000  0.000  0.000  0.000  0.063
   30  0.003  0.000  0.000  0.000  0.000  0.000  0.000  0.000  0.000  0.003
   31  0.016  0.000  0.000  0.000  0.000  0.000  0.000  0.000  0.000  0.017
tot    0.360  0.008  0.011  0.013  0.121  0.037  0.166  0.057  0.075  0.848

band     9 # energy  -10.53296064 # occ.  1.00000000

ion      s     py     pz     px    dxy    dyz    dz2    dxz  x2-y2    tot
    1  0.000  0.001  0.001  0.001  0.010  0.004  0.012  0.005  0.007  0.039
    2  0.000  0.000  0.002  0.002  0.015  0.002  0.028  0.007  0.003  0.059
    3  0.002  0.001  0.001  0.000  0.000  0.002  0.008  0.000  0.004  0.018
    4  0.003  0.001  0.000  0.000  0.003  0.006  0.001  0.001  0.014  0.028
    5  0.000  0.004  0.000  0.000  0.001  0.019  0.001  0.001  0.037  0.063
    6  0.005  0.001  0.001  0.000  0.003  0.003  0.013  0.001  0.005  0.031
    7  0.000  0.000  0.001  0.001  0.006  0.001  0.007  0.004  0.002  0.024
    8  0.001  0.000  0.000  0.000  0.003  0.001  0.001  0.002  0.003  0.012
    9  0.001  0.002  0.001  0.000  0.002  0.008  0.022  0.001  0.018  0.055
   10  0.006  0.000  0.000  0.000  0.003  0.002  0.005  0.001  0.003  0.021
   11  0.000  0.001  0.001  0.001  0.006  0.003  0.020  0.003  0.006  0.041
   12  0.001  0.000  0.001  0.000  0.002  0.002  0.012  0.001  0.005  0.024
   13  0.003  0.001  0.002  0.001  0.011  0.003  0.033  0.006  0.006  0.065
   14  0.004  0.000  0.000  0.000  0.000  0.000  0.007  0.001  0.000  0.013
   15  0.000  0.000  0.000  0.000  0.004  0.002  0.005  0.002  0.004  0.019
   16  0.012  0.000  0.000  0.000  0.000  0.000  0.000  0.000  0.000  0.012
   17  0.015  0.000  0.000  0.000  0.000  0.000  0.000  0.000  0.000  0.015
   18  0.059  0.000  0.000  0.000  0.000  0.000  0.000  0.000  0.000  0.059
   19  0.029  0.000  0.000  0.000  0.000  0.000  0.000  0.000  0.000  0.029
   20  0.013  0.000  0.000  0.000  0.000  0.000  0.000  0.000  0.000  0.013
   21  0.003  0.000  0.000  0.000  0.000  0.000  0.000  0.000  0.000  0.003
   22  0.016  0.000  0.000  0.000  0.000  0.000  0.000  0.000  0.000  0.016
   23  0.010  0.000  0.000  0.000  0.000  0.000  0.000  0.000  0.000  0.010
   24  0.005  0.000  0.000  0.000  0.000  0.000  0.000  0.000  0.000  0.005
   25  0.024  0.000  0.000  0.000  0.000  0.000  0.000  0.000  0.000  0.024
   26  0.000  0.000  0.000  0.000  0.000  0.000  0.000  0.000  0.000  0.000
   27  0.035  0.000  0.000  0.000  0.000  0.000  0.000  0.000  0.000  0.035
   28  0.024  0.000  0.000  0.000  0.000  0.000  0.000  0.000  0.000  0.024
   29  0.078  0.000  0.000  0.000  0.000  0.000  0.000  0.000  0.000  0.078
   30  0.001  0.000  0.000  0.000  0.000  0.000  0.000  0.000  0.000  0.001
   31  0.012  0.000  0.000  0.000  0.000  0.000  0.000  0.000  0.000  0.012
tot    0.364  0.012  0.012  0.008  0.071  0.055  0.173  0.035  0.118  0.848

band    10 # energy  -10.50924007 # occ.  1.00000000

ion      s     py     pz     px    dxy    dyz    dz2    dxz  x2-y2    tot
    1  0.001  0.000  0.000  0.000  0.004  0.002  0.001  0.002  0.005  0.015
    2  0.001  0.000  0.000  0.000  0.003  0.001  0.001  0.001  0.001  0.006
    3  0.004  0.001  0.000  0.000  0.000  0.002  0.001  0.000  0.005  0.013
    4  0.002  0.000  0.003  0.001  0.005  0.001  0.047  0.003  0.003  0.067
    5  0.000  0.000  0.000  0.001  0.008  0.001  0.005  0.004  0.002  0.021
    6  0.000  0.000  0.000  0.000  0.001  0.001  0.005  0.000  0.001  0.008
    7  0.000  0.001  0.003  0.000  0.005  0.005  0.037  0.002  0.013  0.066
    8  0.000  0.000  0.000  0.005  0.038  0.000  0.001  0.019  0.000  0.063
    9  0.000  0.000  0.000  0.001  0.005  0.000  0.001  0.003  0.000  0.010
   10  0.001  0.000  0.000  0.000  0.000  0.000  0.002  0.000  0.000  0.003
   11  0.004  0.001  0.002  0.003  0.031  0.006  0.032  0.015  0.010  0.104
   12  0.002  0.003  0.000  0.000  0.003  0.018  0.007  0.001  0.034  0.068
   13  0.000  0.001  0.000  0.000  0.003  0.004  0.001  0.002  0.007  0.017
   14  0.000  0.000  0.000  0.000  0.000  0.001  0.001  0.000  0.002  0.006
   15  0.000  0.002  0.001  0.000  0.004  0.012  0.017  0.001  0.026  0.064
   16  0.000  0.000  0.000  0.000  0.000  0.000  0.000  0.000  0.000  0.000
   17  0.000  0.000  0.000  0.000  0.000  0.000  0.000  0.000  0.000  0.000
   18  0.004  0.000  0.000  0.000  0.000  0.000  0.000  0.000  0.000  0.004
   19  0.005  0.000  0.000  0.000  0.000  0.000  0.000  0.000  0.000  0.005
   20  0.112  0.000  0.000  0.000  0.000  0.000  0.000  0.000  0.000  0.112
   21  0.014  0.000  0.000  0.000  0.000  0.000  0.000  0.000  0.000  0.014
   22  0.015  0.000  0.000  0.000  0.000  0.000  0.000  0.000  0.000  0.015
   23  0.084  0.000  0.000  0.000  0.000  0.000  0.000  0.000  0.000  0.084
   24  0.003  0.000  0.000  0.000  0.000  0.000  0.000  0.000  0.000  0.003
   25  0.004  0.000  0.000  0.000  0.000  0.000  0.000  0.000  0.000  0.004
   26  0.004  0.000  0.000  0.000  0.000  0.000  0.000  0.000  0.000  0.004
   27  0.049  0.000  0.000  0.000  0.000  0.000  0.000  0.000  0.000  0.049
   28  0.007  0.000  0.000  0.000  0.000  0.000  0.000  0.000  0.000  0.007
   29  0.004  0.000  0.000  0.000  0.000  0.000  0.000  0.000  0.000  0.004
   30  0.001  0.000  0.000  0.000  0.000  0.000  0.000  0.000  0.000  0.001
   31  0.020  0.000  0.000  0.000  0.000  0.000  0.000  0.000  0.000  0.020
tot    0.343  0.010  0.011  0.012  0.109  0.052  0.159  0.053  0.109  0.858

band    11 # energy  -10.47871650 # occ.  1.00000000

ion      s     py     pz     px    dxy    dyz    dz2    dxz  x2-y2    tot
    1  0.001  0.002  0.000  0.000  0.001  0.012  0.002  0.000  0.025  0.044
    2  0.000  0.000  0.002  0.002  0.023  0.002  0.032  0.011  0.003  0.076
    3  0.000  0.001  0.000  0.000  0.001  0.002  0.004  0.000  0.002  0.010
    4  0.000  0.000  0.000  0.000  0.002  0.002  0.000  0.001  0.005  0.010
    5  0.001  0.001  0.000  0.000  0.002  0.005  0.004  0.001  0.009  0.023
    6  0.002  0.000  0.002  0.002  0.024  0.002  0.028  0.011  0.003  0.073
    7  0.001  0.000  0.000  0.000  0.001  0.000  0.004  0.000  0.001  0.008
    8  0.000  0.000  0.000  0.000  0.001  0.000  0.000  0.000  0.001  0.003
    9  0.002  0.001  0.003  0.003  0.032  0.003  0.052  0.017  0.008  0.121
   10  0.004  0.001  0.000  0.000  0.002  0.003  0.001  0.001  0.008  0.020
   11  0.000  0.000  0.001  0.000  0.001  0.001  0.010  0.001  0.001  0.015
   12  0.000  0.000  0.000  0.000  0.001  0.000  0.003  0.000  0.000  0.005
   13  0.001  0.000  0.001  0.005  0.050  0.000  0.015  0.027  0.000  0.099
   14  0.003  0.001  0.000  0.000  0.002  0.005  0.002  0.001  0.010  0.024
   15  0.000  0.000  0.000  0.000  0.000  0.002  0.001  0.000  0.003  0.006
   16  0.001  0.000  0.000  0.000  0.000  0.000  0.000  0.000  0.000  0.001
   17  0.000  0.000  0.000  0.000  0.000  0.000  0.000  0.000  0.000  0.000
   18  0.079  0.000  0.000  0.000  0.000  0.000  0.000  0.000  0.000  0.080
   19  0.012  0.000  0.000  0.000  0.000  0.000  0.000  0.000  0.000  0.012
   20  0.000  0.000  0.000  0.000  0.000  0.000  0.000  0.000  0.000  0.000
   21  0.003  0.000  0.000  0.000  0.000  0.000  0.000  0.000  0.000  0.003
   22  0.081  0.000  0.000  0.000  0.000  0.000  0.000  0.000  0.000  0.081
   23  0.006  0.000  0.000  0.000  0.000  0.000  0.000  0.000  0.000  0.006
   24  0.001  0.000  0.000  0.000  0.000  0.000  0.000  0.000  0.000  0.001
   25  0.078  0.000  0.000  0.000  0.000  0.000  0.000  0.000  0.000  0.078
   26  0.003  0.000  0.000  0.000  0.000  0.000  0.000  0.000  0.000  0.003
   27  0.014  0.000  0.000  0.000  0.000  0.000  0.000  0.000  0.000  0.014
   28  0.006  0.000  0.000  0.000  0.000  0.000  0.000  0.000  0.000  0.006
   29  0.035  0.000  0.000  0.000  0.000  0.000  0.000  0.000  0.000  0.035
   30  0.002  0.000  0.000  0.000  0.000  0.000  0.000  0.000  0.000  0.002
   31  0.001  0.000  0.000  0.000  0.000  0.000  0.000  0.000  0.000  0.001
tot    0.338  0.008  0.010  0.014  0.143  0.039  0.157  0.070  0.080  0.859

band    12 # energy  -10.44345109 # occ.  1.00000000

ion      s     py     pz     px    dxy    dyz    dz2    dxz  x2-y2    tot
    1  0.000  0.000  0.000  0.000  0.001  0.000  0.001  0.000  0.000  0.003
    2  0.002  0.000  0.002  0.000  0.000  0.000  0.025  0.001  0.000  0.031
    3  0.004  0.002  0.003  0.000  0.000  0.008  0.032  0.000  0.005  0.055
    4  0.002  0.000  0.000  0.000  0.002  0.002  0.002  0.001  0.007  0.016
    5  0.001  0.000  0.000  0.000  0.000  0.003  0.000  0.000  0.006  0.010
    6  0.000  0.000  0.002  0.000  0.001  0.000  0.028  0.001  0.001  0.033
    7  0.002  0.000  0.000  0.000  0.002  0.003  0.000  0.001  0.008  0.017
    8  0.000  0.000  0.000  0.000  0.001  0.000  0.004  0.000  0.002  0.008
    9  0.002  0.000  0.000  0.003  0.030  0.004  0.003  0.016  0.009  0.067
   10  0.002  0.004  0.000  0.001  0.008  0.016  0.002  0.003  0.029  0.065
   11  0.002  0.003  0.001  0.000  0.000  0.016  0.023  0.000  0.033  0.078
   12  0.000  0.000  0.000  0.000  0.000  0.000  0.002  0.000  0.000  0.003
   13  0.004  0.001  0.001  0.000  0.002  0.009  0.022  0.001  0.022  0.063
   14  0.003  0.003  0.000  0.001  0.009  0.014  0.000  0.004  0.026  0.061
   15  0.000  0.000  0.000  0.000  0.000  0.001  0.002  0.000  0.002  0.005
   16  0.008  0.000  0.000  0.000  0.000  0.000  0.000  0.000  0.000  0.008
   17  0.001  0.000  0.000  0.000  0.000  0.000  0.000  0.000  0.000  0.001
   18  0.066  0.000  0.000  0.000  0.000  0.000  0.000  0.000  0.000  0.066
   19  0.123  0.000  0.000  0.000  0.000  0.000  0.000  0.000  0.000  0.123
   20  0.001  0.000  0.000  0.000  0.000  0.000  0.000  0.000  0.000  0.001