PROCAR lm decomposed
# of k-points:    2         # of bands:  216         # of ions:   31

 k-point     1 :    0.25000000 0.25000000 0.25000000     weight = 1.00000000

band     1 # energy  -11.17462347 # occ.  1.00000000

ion      s     py     pz     px    dxy    dyz    dz2    dxz  x2-y2    tot
    1  0.016  0.000  0.001  0.000  0.002  0.000  0.002  0.001  0.000  0.022
    2  0.010  0.000  0.000  0.000  0.001  0.000  0.001  0.000  0.000  0.014
    3  0.008  0.000  0.000  0.000  0.000  0.000  0.001  0.000  0.002  0.013
    4  0.014  0.000  0.001  0.000  0.001  0.000  0.002  0.001  0.000  0.020
    5  0.018  0.000  0.001  0.000  0.002  0.000  0.003  0.001  0.000  0.024
    6  0.009  0.000  0.000  0.000  0.001  0.000  0.001  0.001  0.001  0.014
    7  0.015  0.000  0.001  0.000  0.001  0.000  0.002  0.001  0.000  0.020
    8  0.010  0.000  0.000  0.000  0.001  0.001  0.001  0.001  0.001  0.015
    9  0.011  0.000  0.000  0.000  0.001  0.000  0.002  0.000  0.000  0.015
   10  0.007  0.000  0.000  0.000  0.000  0.000  0.002  0.000  0.000  0.010
   11  0.012  0.000  0.000  0.000  0.001  0.000  0.002  0.000  0.000  0.016
   12  0.016  0.000  0.001  0.000  0.001  0.000  0.002  0.001  0.000  0.021
   13  0.012  0.000  0.000  0.000  0.001  0.000  0.002  0.000  0.000  0.016
   14  0.007  0.000  0.000  0.000  0.001  0.000  0.001  0.000  0.000  0.009
   15  0.016  0.000  0.001  0.000  0.001  0.000  0.003  0.001  0.000  0.021
   16  0.012  0.000  0.000  0.000  0.000  0.000  0.000  0.000  0.000  0.012
   17  0.034  0.000  0.000  0.000  0.000  0.000  0.000  0.000  0.000  0.034
   18  0.023  0.000  0.000  0.000  0.000  0.000  0.000  0.000  0.000  0.023
   19  0.019  0.000  0.000  0.000  0.000  0.000  0.000  0.000  0.000  0.019
   20  0.031  0.000  0.000  0.000  0.000  0.000  0.000  0.000  0.000  0.031
   21  0.040  0.000  0.000  0.000  0.000  0.000  0.000  0.000  0.000  0.040
   22  0.021  0.000  0.000  0.000  0.000  0.000  0.000  0.000  0.000  0.021
   23  0.032  0.000  0.000  0.000  0.000  0.000  0.000  0.000  0.000  0.032
   24  0.025  0.000  0.000  0.000  0.000  0.000  0.000  0.000  0.000  0.025
   25  0.029  0.000  0.000  0.000  0.000  0.000  0.000  0.000  0.000  0.029
   26  0.013  0.000  0.000  0.000  0.000  0.000  0.000  0.000  0.000  0.013
   27  0.034  0.000  0.000  0.000  0.000  0.000  0.000  0.000  0.000  0.034
   28  0.045  0.000  0.000  0.000  0.000  0.000  0.000  0.000  0.000  0.045
   29  0.032  0.000  0.000  0.000  0.000  0.000  0.000  0.000  0.000  0.032
   30  0.012  0.000  0.000  0.000  0.000  0.000  0.000  0.000  0.000  0.012
   31  0.046  0.000  0.000  0.000  0.000  0.000  0.000  0.000  0.000  0.046
tot    0.627  0.002  0.007  0.005  0.014  0.003  0.027  0.008  0.007  0.699

band     2 # energy  -10.94740064 # occ.  1.00000000

ion      s     py     pz     px    dxy    dyz    dz2    dxz  x2-y2    tot
    1  0.005  0.001  0.000  0.000  0.001  0.002  0.001  0.000  0.004  0.015
    2  0.011  0.000  0.000  0.001  0.001  0.001  0.003  0.001  0.002  0.020
    3  0.013  0.001  0.001  0.000  0.000  0.003  0.003  0.000  0.004  0.026
    4  0.012  0.000  0.000  0.000  0.001  0.001  0.002  0.000  0.005  0.022
    5  0.005  0.001  0.000  0.000  0.001  0.003  0.001  0.001  0.005  0.017
    6  0.014  0.000  0.001  0.000  0.002  0.001  0.003  0.000  0.001  0.022
    7  0.008  0.001  0.000  0.001  0.003  0.001  0.002  0.002  0.004  0.022
    8  0.009  0.001  0.000  0.000  0.001  0.000  0.005  0.001  0.002  0.018
    9  0.009  0.001  0.000  0.000  0.002  0.001  0.002  0.001  0.003  0.019
   10  0.012  0.000  0.000  0.000  0.001  0.002  0.002  0.000  0.002  0.019
   11  0.013  0.001  0.001  0.000  0.001  0.001  0.004  0.001  0.003  0.024
   12  0.005  0.001  0.000  0.000  0.001  0.002  0.001  0.000  0.004  0.015
   13  0.010  0.001  0.000  0.000  0.001  0.001  0.002  0.000  0.003  0.019
   14  0.013  0.001  0.000  0.000  0.002  0.001  0.000  0.001  0.002  0.020
   15  0.004  0.001  0.000  0.000  0.001  0.002  0.001  0.000  0.004  0.013
   16  0.022  0.000  0.000  0.000  0.000  0.000  0.000  0.000  0.000  0.022
   17  0.013  0.000  0.000  0.000  0.000  0.000  0.000  0.000  0.000  0.013
   18  0.031  0.000  0.000  0.000  0.000  0.000  0.000  0.000  0.000  0.031
   19  0.043  0.000  0.000  0.000  0.000  0.000  0.000  0.000  0.000  0.043
   20  0.032  0.000  0.000  0.000  0.000  0.000  0.000  0.000  0.000  0.032
   21  0.013  0.000  0.000  0.000  0.000  0.000  0.000  0.000  0.000  0.013
   22  0.036  0.000  0.000  0.000  0.000  0.000  0.000  0.000  0.000  0.036
   23  0.024  0.000  0.000  0.000  0.000  0.000  0.000  0.000  0.000  0.024
   24  0.023  0.000  0.000  0.000  0.000  0.000  0.000  0.000  0.000  0.024
   25  0.031  0.000  0.000  0.000  0.000  0.000  0.000  0.000  0.000  0.031
   26  0.024  0.000  0.000  0.000  0.000  0.000  0.000  0.000  0.000  0.025
   27  0.046  0.000  0.000  0.000  0.000  0.000  0.000  0.000  0.000  0.047
   28  0.018  0.000  0.000  0.000  0.000  0.000  0.000  0.000  0.000  0.018
   29  0.035  0.000  0.000  0.000  0.000  0.000  0.000  0.000  0.000  0.035
   30  0.031  0.000  0.000  0.000  0.000  0.000  0.000  0.000  0.000  0.031
   31  0.016  0.000  0.000  0.000  0.000  0.000  0.000  0.000  0.000  0.016
tot    0.580  0.011  0.006  0.005  0.020  0.023  0.032  0.009  0.048  0.733

band     3 # energy  -10.70980133 # occ.  1.00000000

ion      s     py     pz     px    dxy    dyz    dz2    dxz  x2-y2    tot
    1  0.012  0.001  0.000  0.001  0.006  0.002  0.004  0.003  0.003  0.031
    2  0.007  0.001  0.000  0.000  0.001  0.002  0.003  0.001  0.003  0.018
    3  0.009  0.001  0.000  0.000  0.000  0.003  0.004  0.000  0.005  0.022
    4  0.001  0.001  0.000  0.002  0.011  0.004  0.000  0.008  0.009  0.037
    5  0.001  0.001  0.000  0.003  0.019  0.003  0.000  0.009  0.007  0.043
    6  0.000  0.000  0.000  0.001  0.007  0.002  0.000  0.004  0.003  0.018
    7  0.014  0.001  0.001  0.001  0.004  0.002  0.006  0.003  0.003  0.035
    8  0.004  0.000  0.000  0.001  0.007  0.000  0.002  0.003  0.001  0.019
    9  0.004  0.001  0.000  0.001  0.003  0.003  0.002  0.002  0.009  0.025
   10  0.004  0.001  0.000  0.001  0.003  0.002  0.001  0.002  0.004  0.017
   11  0.007  0.001  0.001  0.001  0.009  0.002  0.006  0.004  0.005  0.036
   12  0.006  0.000  0.001  0.001  0.004  0.000  0.006  0.002  0.000  0.021
   13  0.005  0.000  0.000  0.000  0.002  0.000  0.003  0.001  0.000  0.011
   14  0.002  0.000  0.000  0.001  0.004  0.000  0.001  0.001  0.001  0.010
   15  0.007  0.001  0.001  0.001  0.008  0.004  0.005  0.004  0.009  0.040
   16  0.000  0.000  0.000  0.000  0.000  0.000  0.000  0.000  0.000  0.000
   17  0.043  0.000  0.000  0.000  0.000  0.000  0.000  0.000  0.000  0.043
   18  0.029  0.000  0.000  0.000  0.000  0.000  0.000  0.000  0.000  0.029
   19  0.032  0.000  0.000  0.000  0.000  0.000  0.000  0.000  0.000  0.032
   20  0.003  0.000  0.000  0.000  0.000  0.000  0.000  0.000  0.000  0.003
   21  0.005  0.000  0.000  0.000  0.000  0.000  0.000  0.000  0.000  0.005
   22  0.001  0.000  0.000  0.000  0.000  0.000  0.000  0.000  0.000  0.001
   23  0.058  0.000  0.000  0.000  0.000  0.000  0.000  0.000  0.000  0.058
   24  0.021  0.000  0.000  0.000  0.000  0.000  0.000  0.000  0.000  0.021
   25  0.020  0.000  0.000  0.000  0.000  0.000  0.000  0.000  0.000  0.020
   26  0.015  0.000  0.000  0.000  0.000  0.000  0.000  0.000  0.000  0.015
   27  0.048  0.000  0.000  0.000  0.000  0.000  0.000  0.000  0.000  0.048
   28  0.046  0.000  0.000  0.000  0.000  0.000  0.000  0.000  0.000  0.046
   29  0.026  0.000  0.000  0.000  0.000  0.000  0.000  0.000  0.000  0.026
   30  0.011  0.000  0.000  0.000  0.000  0.000  0.000  0.000  0.000  0.011
   31  0.045  0.000  0.000  0.000  0.000  0.000  0.000  0.000  0.000  0.045
tot    0.483  0.010  0.005  0.015  0.088  0.030  0.045  0.048  0.063  0.787

band     4 # energy  -10.68771331 # occ.  1.00000000

ion      s     py     pz     px    dxy    dyz    dz2    dxz  x2-y2    tot
    1  0.000  0.001  0.000  0.003  0.018  0.005  0.001  0.009  0.012  0.049
    2  0.002  0.000  0.000  0.001  0.011  0.001  0.002  0.003  0.002  0.022
    3  0.001  0.001  0.001  0.000  0.001  0.002  0.005  0.000  0.002  0.013
    4  0.009  0.001  0.001  0.000  0.001  0.004  0.007  0.001  0.008  0.031
    5  0.017  0.000  0.001  0.000  0.004  0.002  0.005  0.002  0.003  0.034
    6  0.005  0.001  0.000  0.000  0.003  0.002  0.001  0.001  0.003  0.016
    7  0.000  0.002  0.000  0.001  0.002  0.007  0.002  0.002  0.020  0.035
    8  0.007  0.001  0.000  0.000  0.003  0.001  0.001  0.001  0.006  0.020
    9  0.007  0.000  0.000  0.000  0.000  0.001  0.004  0.000  0.001  0.013
   10  0.007  0.000  0.000  0.000  0.002  0.000  0.003  0.000  0.001  0.014
   11  0.002  0.001  0.000  0.001  0.007  0.002  0.002  0.003  0.004  0.021
   12  0.005  0.001  0.001  0.002  0.011  0.004  0.009  0.005  0.009  0.047
   13  0.002  0.002  0.000  0.001  0.004  0.007  0.003  0.002  0.016  0.037
   14  0.004  0.001  0.000  0.000  0.002  0.002  0.002  0.001  0.005  0.018
   15  0.006  0.001  0.001  0.001  0.006  0.001  0.008  0.003  0.004  0.030
   16  0.031  0.000  0.000  0.000  0.000  0.000  0.000  0.000  0.000  0.031
   17  0.005  0.000  0.000  0.000  0.000  0.000  0.000  0.000  0.000  0.005
   18  0.016  0.000  0.000  0.000  0.000  0.000  0.000  0.000  0.000  0.016
   19  0.019  0.000  0.000  0.000  0.000  0.000  0.000  0.000  0.000  0.019
   20  0.031  0.000  0.000  0.000  0.000  0.000  0.000  0.000  0.000  0.031
   21  0.066  0.000  0.000  0.000  0.000  0.000  0.000  0.000  0.000  0.066
   22  0.023  0.000  0.000  0.000  0.000  0.000  0.000  0.000  0.000  0.023
   23  0.005  0.000  0.000  0.000  0.000  0.000  0.000  0.000  0.000  0.005
   24  0.024  0.000  0.000  0.000  0.000  0.000  0.000  0.000  0.000  0.024
   25  0.031  0.000  0.000  0.000  0.000  0.000  0.000  0.000  0.000  0.031
   26  0.008  0.000  0.000  0.000  0.000  0.000  0.000  0.000  0.000  0.008
   27  0.017  0.000  0.000  0.000  0.000  0.000  0.000  0.000  0.000  0.017
   28  0.058  0.000  0.000  0.000  0.000  0.000  0.000  0.000  0.000  0.058
   29  0.016  0.000  0.000  0.000  0.000  0.000  0.000  0.000  0.000  0.016
   30  0.002  0.000  0.000  0.000  0.000  0.000  0.000  0.000  0.000  0.003
   31  0.042  0.000  0.000  0.000  0.000  0.000  0.000  0.000  0.000  0.042
tot    0.471  0.013  0.006  0.011  0.074  0.039  0.055  0.034  0.095  0.796

band     5 # energy  -10.63403083 # occ.  1.00000000

ion      s     py     pz     px    dxy    dyz    dz2    dxz  x2-y2    tot
    1  0.007  0.000  0.001  0.000  0.002  0.001  0.011  0.001  0.001  0.025
    2  0.006  0.000  0.000  0.000  0.006  0.000  0.003  0.001  0.000  0.016
    3  0.006  0.000  0.000  0.000  0.001  0.001  0.004  0.001  0.008  0.021
    4  0.001  0.000  0.002  0.001  0.006  0.001  0.025  0.002  0.002  0.040
    5  0.001  0.000  0.002  0.000  0.003  0.001  0.029  0.002  0.003  0.043
    6  0.000  0.000  0.001  0.001  0.006  0.001  0.012  0.003  0.002  0.026
    7  0.006  0.000  0.001  0.001  0.008  0.000  0.014  0.004  0.001  0.034
    8  0.009  0.000  0.001  0.000  0.001  0.000  0.014  0.000  0.001  0.026
    9  0.001  0.000  0.001  0.001  0.003  0.000  0.015  0.002  0.000  0.025
   10  0.001  0.000  0.001  0.001  0.008  0.000  0.007  0.002  0.003  0.023
   11  0.001  0.000  0.002  0.001  0.005  0.002  0.028  0.003  0.003  0.043
   12  0.006  0.000  0.001  0.001  0.006  0.000  0.015  0.002  0.001  0.031
   13  0.004  0.001  0.001  0.000  0.002  0.002  0.010  0.001  0.004  0.025
   14  0.005  0.000  0.000  0.001  0.004  0.000  0.011  0.000  0.000  0.021
   15  0.003  0.000  0.002  0.001  0.006  0.001  0.022  0.003  0.002  0.040
   16  0.047  0.000  0.000  0.000  0.000  0.000  0.000  0.000  0.000  0.047
   17  0.003  0.000  0.000  0.000  0.000  0.000  0.000  0.000  0.000  0.003
   18  0.001  0.000  0.000  0.000  0.000  0.000  0.000  0.000  0.000  0.001
   19  0.005  0.000  0.000  0.000  0.000  0.000  0.000  0.000  0.000  0.005
   20  0.041  0.000  0.000  0.000  0.000  0.000  0.000  0.000  0.000  0.041
   21  0.064  0.000  0.000  0.000  0.000  0.000  0.000  0.000  0.000  0.064
   22  0.022  0.000  0.000  0.000  0.000  0.000  0.000  0.000  0.000  0.022
   23  0.017  0.000  0.000  0.000  0.000  0.000  0.000  0.000  0.000  0.017
   24  0.001  0.000  0.000  0.000  0.000  0.000  0.000  0.000  0.000  0.001
   25  0.049  0.000  0.000  0.000  0.000  0.000  0.000  0.000  0.000  0.049
   26  0.015  0.000  0.000  0.000  0.000  0.000  0.000  0.000  0.000  0.015
   27  0.063  0.000  0.000  0.000  0.000  0.000  0.000  0.000  0.000  0.063
   28  0.006  0.000  0.000  0.000  0.000  0.000  0.000  0.000  0.000  0.006
   29  0.003  0.000  0.000  0.000  0.000  0.000  0.000  0.000  0.000  0.003
   30  0.001  0.000  0.000  0.000  0.000  0.000  0.000  0.000  0.000  0.001
   31  0.038  0.000  0.000  0.000  0.000  0.000  0.000  0.000  0.000  0.038
tot    0.433  0.004  0.017  0.008  0.067  0.011  0.220  0.027  0.030  0.817

band     6 # energy  -10.60142889 # occ.  1.00000000

ion      s     py     pz     px    dxy    dyz    dz2    dxz  x2-y2    tot
    1  0.001  0.001  0.002  0.000  0.003  0.004  0.025  0.001  0.009  0.046
    2  0.000  0.000  0.001  0.002  0.012  0.000  0.011  0.007  0.001  0.034
    3  0.001  0.001  0.000  0.000  0.002  0.004  0.002  0.001  0.002  0.013
    4  0.010  0.000  0.000  0.000  0.002  0.001  0.000  0.003  0.002  0.019
    5  0.002  0.001  0.001  0.001  0.009  0.004  0.014  0.005  0.007  0.042
    6  0.011  0.000  0.000  0.001  0.006  0.000  0.001  0.004  0.000  0.023
    7  0.000  0.000  0.001  0.001  0.007  0.002  0.008  0.007  0.005  0.032
    8  0.002  0.000  0.001  0.001  0.008  0.002  0.008  0.004  0.001  0.028
    9  0.007  0.001  0.001  0.001  0.008  0.003  0.008  0.004  0.006  0.039
   10  0.002  0.000  0.000  0.001  0.003  0.001  0.001  0.000  0.003  0.011
   11  0.002  0.000  0.000  0.001  0.004  0.001  0.005  0.002  0.001  0.017
   12  0.001  0.002  0.001  0.000  0.003  0.007  0.016  0.002  0.016  0.048
   13  0.002  0.000  0.001  0.002  0.013  0.001  0.015  0.007  0.002  0.044
   14  0.003  0.001  0.000  0.000  0.002  0.003  0.004  0.000  0.004  0.018
   15  0.008  0.000  0.000  0.001  0.010  0.000  0.002  0.004  0.001  0.026
   16  0.007  0.000  0.000  0.000  0.000  0.000  0.000  0.000  0.000  0.007
   17  0.070  0.000  0.000  0.000  0.000  0.000  0.000  0.000  0.000  0.070
   18  0.025  0.000  0.000  0.000  0.000  0.000  0.000  0.000  0.000  0.026
   19  0.009  0.000  0.000  0.000  0.000  0.000  0.000  0.000  0.000  0.009
   20  0.022  0.000  0.000  0.000  0.000  0.000  0.000  0.000  0.000  0.022
   21  0.013  0.000  0.000  0.000  0.000  0.000  0.000  0.000  0.000  0.013
   22  0.032  0.000  0.000  0.000  0.000  0.000  0.000  0.000  0.000  0.032
   23  0.017  0.000  0.000  0.000  0.000  0.000  0.000  0.000  0.000  0.017
   24  0.040  0.000  0.000  0.000  0.000  0.000  0.000  0.000  0.000  0.040
   25  0.014  0.000  0.000  0.000  0.000  0.000  0.000  0.000  0.000  0.014
   26  0.006  0.000  0.000  0.000  0.000  0.000  0.000  0.000  0.000  0.006
   27  0.009  0.000  0.000  0.000  0.000  0.000  0.000  0.000  0.000  0.009
   28  0.023  0.000  0.000  0.000  0.000  0.000  0.000  0.000  0.000  0.023
   29  0.057  0.000  0.000  0.000  0.000  0.000  0.000  0.000  0.000  0.057
   30  0.019  0.000  0.000  0.000  0.000  0.000  0.000  0.000  0.000  0.019
   31  0.013  0.000  0.000  0.000  0.000  0.000  0.000  0.000  0.000  0.013
tot    0.429  0.008  0.010  0.013  0.093  0.032  0.120  0.052  0.060  0.817

band     7 # energy  -10.55756773 # occ.  1.00000000

ion      s     py     pz     px    dxy    dyz    dz2    dxz  x2-y2    tot
    1  0.002  0.002  0.001  0.001  0.006  0.009  0.009  0.003  0.019  0.051
    2  0.002  0.001  0.001  0.000  0.002  0.004  0.013  0.002  0.007  0.032
    3  0.000  0.000  0.001  0.000  0.000  0.001  0.014  0.000  0.003  0.019
    4  0.002  0.001  0.001  0.000  0.001  0.003  0.010  0.000  0.008  0.026
    5  0.004  0.002  0.001  0.000  0.002  0.008  0.009  0.001  0.015  0.041
    6  0.004  0.000  0.001  0.000  0.004  0.002  0.010  0.001  0.004  0.026
    7  0.002  0.002  0.001  0.000  0.002  0.006  0.009  0.002  0.012  0.035
    8  0.002  0.002  0.001  0.000  0.002  0.005  0.010  0.001  0.021  0.043
    9  0.002  0.000  0.001  0.000  0.002  0.000  0.017  0.001  0.000  0.025
   10  0.008  0.000  0.000  0.000  0.004  0.001  0.007  0.001  0.003  0.025
   11  0.001  0.001  0.001  0.000  0.002  0.006  0.014  0.001  0.011  0.037
   12  0.001  0.001  0.001  0.000  0.002  0.004  0.012  0.001  0.006  0.028
   13  0.003  0.000  0.001  0.000  0.000  0.000  0.014  0.000  0.000  0.019
   14  0.004  0.001  0.000  0.001  0.005  0.001  0.009  0.001  0.007  0.029
   15  0.000  0.001  0.002  0.000  0.000  0.003  0.030  0.000  0.004  0.040
   16  0.058  0.000  0.000  0.000  0.000  0.000  0.000  0.000  0.000  0.058
   17  0.010  0.000  0.000  0.000  0.000  0.000  0.000  0.000  0.000  0.010
   18  0.012  0.000  0.000  0.000  0.000  0.000  0.000  0.000  0.000  0.012
   19  0.029  0.000  0.000  0.000  0.000  0.000  0.000  0.000  0.000  0.029
   20  0.033  0.000  0.000  0.000  0.000  0.000  0.000  0.000  0.000  0.033
   21  0.012  0.000  0.000  0.000  0.000  0.000  0.000  0.000  0.000  0.012
   22  0.004  0.000  0.000  0.000  0.000  0.000  0.000  0.000  0.000  0.004
   23  0.019  0.000  0.000  0.000  0.000  0.000  0.000  0.000  0.000  0.019
   24  0.005  0.000  0.000  0.000  0.000  0.000  0.000  0.000  0.000  0.005
   25  0.050  0.000  0.000  0.000  0.000  0.000  0.000  0.000  0.000  0.050
   26  0.003  0.000  0.000  0.000  0.000  0.000  0.000  0.000  0.000  0.003
   27  0.019  0.000  0.000  0.000  0.000  0.000  0.000  0.000  0.000  0.019
   28  0.016  0.000  0.000  0.000  0.000  0.000  0.000  0.000  0.000  0.016
   29  0.033  0.000  0.000  0.000  0.000  0.000  0.000  0.000  0.000  0.033
   30  0.003  0.000  0.000  0.000  0.000  0.000  0.000  0.000  0.000  0.003
   31  0.056  0.000  0.000  0.000  0.000  0.000  0.000  0.000  0.000  0.056
tot    0.397  0.014  0.014  0.004  0.035  0.052  0.186  0.014  0.120  0.836

band     8 # energy  -10.53935889 # occ.  1.00000000

ion      s     py     pz     px    dxy    dyz    dz2    dxz  x2-y2    tot
    1  0.002  0.000  0.001  0.002  0.018  0.002  0.008  0.009  0.005  0.047
    2  0.004  0.001  0.000  0.000  0.004  0.002  0.004  0.002  0.004  0.021
    3  0.007  0.000  0.000  0.000  0.001  0.000  0.006  0.000  0.001  0.016
    4  0.000  0.002  0.000  0.001  0.003  0.011  0.000  0.004  0.030  0.051
    5  0.001  0.002  0.000  0.002  0.014  0.009  0.006  0.007  0.018  0.058
    6  0.000  0.001  0.000  0.001  0.012  0.003  0.001  0.003  0.005  0.026
    7  0.003  0.000  0.001  0.001  0.007  0.000  0.009  0.007  0.001  0.030
    8  0.005  0.000  0.000  0.000  0.004  0.001  0.003  0.002  0.003  0.019
    9  0.000  0.001  0.000  0.001  0.005  0.005  0.002  0.003  0.012  0.029
   10  0.000  0.001  0.000  0.001  0.011  0.005  0.001  0.003  0.007  0.031
   11  0.000  0.002  0.000  0.000  0.003  0.009  0.003  0.001  0.018  0.037
   12  0.004  0.000  0.001  0.001  0.010  0.001  0.014  0.005  0.002  0.038
   13  0.004  0.000  0.001  0.001  0.006  0.001  0.009  0.003  0.001  0.026
   14  0.004  0.000  0.000  0.001  0.006  0.001  0.005  0.001  0.001  0.019
   15  0.000  0.002  0.000  0.000  0.001  0.009  0.006  0.001  0.020  0.040
   16  0.008  0.000  0.000  0.000  0.000  0.000  0.000  0.000  0.000  0.008
   17  0.031  0.000  0.000  0.000  0.000  0.000  0.000  0.000  0.000  0.031
   18  0.031  0.000  0.000  0.000  0.000  0.000  0.000  0.000  0.000  0.031
   19  0.045  0.000  0.000  0.000  0.000  0.000  0.000  0.000  0.000  0.045
   20  0.001  0.000  0.000  0.000  0.000  0.000  0.000  0.000  0.000  0.001
   21  0.016  0.000  0.000  0.000  0.000  0.000  0.000  0.000  0.000  0.016
   22  0.002  0.000  0.000  0.000  0.000  0.000  0.000  0.000  0.000  0.002
   23  0.034  0.000  0.000  0.000  0.000  0.000  0.000  0.000  0.000  0.034
   24  0.033  0.000  0.000  0.000  0.000  0.000  0.000  0.000  0.000  0.033
   25  0.008  0.000  0.000  0.000  0.000  0.000  0.000  0.000  0.000  0.008
   26  0.002  0.000  0.000  0.000  0.000  0.000  0.000  0.000  0.000  0.002
   27  0.008  0.000  0.000  0.000  0.000  0.000  0.000  0.000  0.000  0.008
   28  0.070  0.000  0.000  0.000  0.000  0.000  0.000  0.000  0.000  0.070
   29  0.035  0.000  0.000  0.000  0.000  0.000  0.000  0.000  0.000  0.035
   30  0.016  0.000  0.000  0.000  0.000  0.000  0.000  0.000  0.000  0.016
   31  0.011  0.000  0.000  0.000  0.000  0.000  0.000  0.000  0.000  0.011
tot    0.387  0.013  0.006  0.012  0.108  0.058  0.078  0.051  0.127  0.841

band     9 # energy  -10.50039335 # occ.  1.00000000

ion      s     py     pz     px    dxy    dyz    dz2    dxz  x2-y2    tot
    1  0.001  0.000  0.000  0.000  0.003  0.000  0.001  0.001  0.001  0.008
    2  0.001  0.001  0.000  0.000  0.001  0.003  0.001  0.001  0.005  0.012
    3  0.002  0.002  0.000  0.000  0.002  0.011  0.006  0.001  0.011  0.036
    4  0.000  0.000  0.002  0.002  0.014  0.001  0.028  0.010  0.001  0.059
    5  0.000  0.000  0.001  0.000  0.002  0.000  0.009  0.001  0.001  0.014
    6  0.002  0.000  0.002  0.000  0.001  0.000  0.023  0.000  0.000  0.028
    7  0.001  0.002  0.001  0.000  0.004  0.007  0.014  0.002  0.018  0.049
    8  0.000  0.001  0.001  0.002  0.011  0.005  0.005  0.006  0.017  0.046
    9  0.001  0.001  0.000  0.001  0.012  0.002  0.006  0.006  0.005  0.035
   10  0.005  0.000  0.001  0.000  0.005  0.000  0.004  0.002  0.001  0.018
   11  0.007  0.000  0.002  0.000  0.002  0.002  0.027  0.001  0.004  0.045
   12  0.000  0.002  0.000  0.000  0.004  0.010  0.000  0.002  0.020  0.038
   13  0.002  0.000  0.000  0.001  0.013  0.002  0.003  0.007  0.005  0.035
   14  0.001  0.002  0.000  0.001  0.012  0.006  0.003  0.003  0.015  0.044
   15  0.000  0.001  0.000  0.001  0.009  0.002  0.006  0.004  0.005  0.027
   16  0.027  0.000  0.000  0.000  0.000  0.000  0.000  0.000  0.000  0.027
   17  0.009  0.000  0.000  0.000  0.000  0.000  0.000  0.000  0.000  0.009
   18  0.003  0.000  0.000  0.000  0.000  0.000  0.000  0.000  0.000  0.003
   19  0.017  0.000  0.000  0.000  0.000  0.000  0.000  0.000  0.000  0.017
   20  0.057  0.000  0.000  0.000  0.000  0.000  0.000  0.000  0.000  0.057
   21  0.020  0.000  0.000  0.000  0.000  0.000  0.000  0.000  0.000  0.020
   22  0.073  0.000  0.000  0.000  0.000  0.000  0.000  0.000  0.000  0.073
   23  0.018  0.000  0.000  0.000  0.000  0.000  0.000  0.000  0.000  0.018
   24  0.015  0.000  0.000  0.000  0.000  0.000  0.000  0.000  0.000  0.015
   25  0.004  0.000  0.000  0.000  0.000  0.000  0.000  0.000  0.000  0.004
   26  0.025  0.000  0.000  0.000  0.000  0.000  0.000  0.000  0.000  0.025
   27  0.065  0.000  0.000  0.000  0.000  0.000  0.000  0.000  0.000  0.065
   28  0.000  0.000  0.000  0.000  0.000  0.000  0.000  0.000  0.000  0.000
   29  0.000  0.000  0.000  0.000  0.000  0.000  0.000  0.000  0.000  0.000
   30  0.003  0.000  0.000  0.000  0.000  0.000  0.000  0.000  0.000  0.003
   31  0.014  0.000  0.000  0.000  0.000  0.000  0.000  0.000  0.000  0.014
tot    0.375  0.012  0.011  0.010  0.094  0.053  0.138  0.045  0.107  0.846

band    10 # energy  -10.48448395 # occ.  1.00000000

ion      s     py     pz     px    dxy    dyz    dz2    dxz  x2-y2    tot
    1  0.000  0.000  0.002  0.002  0.021  0.000  0.034  0.011  0.000  0.072
    2  0.001  0.000  0.000  0.001  0.004  0.000  0.001  0.003  0.000  0.011
    3  0.000  0.000  0.000  0.000  0.001  0.000  0.001  0.000  0.000  0.003
    4  0.001  0.001  0.002  0.000  0.001  0.003  0.020  0.002  0.005  0.034
    5  0.001  0.000  0.002  0.002  0.021  0.000  0.027  0.012  0.000  0.064
    6  0.001  0.000  0.000  0.001  0.005  0.000  0.000  0.002  0.000  0.009
    7  0.001  0.001  0.001  0.000  0.001  0.003  0.020  0.002  0.008  0.039
    8  0.000  0.000  0.000  0.002  0.017  0.001  0.006  0.008  0.001  0.036
    9  0.001  0.001  0.001  0.000  0.003  0.006  0.011  0.001  0.013  0.036
   10  0.000  0.000  0.000  0.000  0.001  0.001  0.000  0.000  0.002  0.004
   11  0.001  0.000  0.000  0.002  0.019  0.000  0.004  0.009  0.000  0.035
   12  0.002  0.000  0.002  0.003  0.024  0.001  0.032  0.013  0.002  0.078
   13  0.000  0.001  0.000  0.000  0.003  0.005  0.005  0.001  0.012  0.028
   14  0.000  0.000  0.000  0.000  0.001  0.000  0.001  0.000  0.000  0.002
   15  0.002  0.000  0.002  0.003  0.026  0.002  0.026  0.014  0.004  0.080
   16  0.002  0.000  0.000  0.000  0.000  0.000  0.000  0.000  0.000  0.002
   17  0.063  0.000  0.000  0.000  0.000  0.000  0.000  0.000  0.000  0.063
   18  0.009  0.000  0.000  0.000  0.000  0.000  0.000  0.000  0.000  0.009
   19  0.001  0.000  0.000  0.000  0.000  0.000  0.000  0.000  0.000  0.001
   20  0.037  0.000  0.000  0.000  0.000  0.000  0.000  0.000  0.000  0.037
   21  0.046  0.000  0.000  0.000  0.000  0.000  0.000  0.000  0.000  0.046
   22  0.001  0.000  0.000  0.000  0.000  0.000  0.000  0.000  0.000  0.001
   23  0.043  0.000  0.000  0.000  0.000  0.000  0.000  0.000  0.000  0.043
   24  0.007  0.000  0.000  0.000  0.000  0.000  0.000  0.000  0.000  0.007
   25  0.014  0.000  0.000  0.000  0.000  0.000  0.000  0.000  0.000  0.014
   26  0.001  0.000  0.000  0.000  0.000  0.000  0.000  0.000  0.000  0.001
   27  0.003  0.000  0.000  0.000  0.000  0.000  0.000  0.000  0.000  0.003
   28  0.046  0.000  0.000  0.000  0.000  0.000  0.000  0.000  0.000  0.046
   29  0.008  0.000  0.000  0.000  0.000  0.000  0.000  0.000  0.000  0.008
   30  0.004  0.000  0.000  0.000  0.000  0.000  0.000  0.000  0.000  0.004
   31  0.043  0.000  0.000  0.000  0.000  0.000  0.000  0.000  0.000  0.043
tot    0.342  0.005  0.013  0.016  0.147  0.023  0.187  0.078  0.048  0.860

band    11 # energy  -10.46563609 # occ.  1.00000000

ion      s     py     pz     px    dxy    dyz    dz2    dxz  x2-y2    tot
    1  0.000  0.001  0.000  0.000  0.001  0.006  0.000  0.000  0.015  0.024
    2  0.001  0.000  0.000  0.002  0.017  0.001  0.006  0.007  0.001  0.036
    3  0.001  0.000  0.000  0.000  0.001  0.001  0.003  0.000  0.001  0.008
    4  0.001  0.000  0.000  0.001  0.004  0.002  0.002  0.005  0.010  0.026
    5  0.003  0.001  0.001  0.001  0.006  0.004  0.015  0.003  0.006  0.039
    6  0.000  0.000  0.002  0.001  0.007  0.000  0.032  0.003  0.001  0.048
    7  0.001  0.001  0.002  0.000  0.001  0.004  0.024  0.002  0.011  0.045
    8  0.000  0.001  0.001  0.001  0.011  0.002  0.014  0.006  0.008  0.043
    9  0.000  0.000  0.001  0.002  0.016  0.000  0.018  0.008  0.001  0.047
   10  0.001  0.001  0.000  0.000  0.001  0.004  0.001  0.000  0.009  0.018
   11  0.001  0.000  0.000  0.001  0.014  0.000  0.005  0.006  0.001  0.029
   12  0.000  0.000  0.000  0.001  0.008  0.002  0.007  0.004  0.004  0.027
   13  0.002  0.002  0.001  0.000  0.003  0.012  0.015  0.001  0.024  0.062
   14  0.002  0.001  0.000  0.001  0.005  0.005  0.003  0.001  0.009  0.027
   15  0.000  0.002  0.001  0.001  0.008  0.009  0.009  0.004  0.018  0.050
   16  0.013  0.000  0.000  0.000  0.000  0.000  0.000  0.000  0.000  0.013
   17  0.002  0.000  0.000  0.000  0.000  0.000  0.000  0.000  0.000  0.002
   18  0.022  0.000  0.000  0.000  0.000  0.000  0.000  0.000  0.000  0.022
   19  0.007  0.000  0.000  0.000  0.000  0.000  0.000  0.000  0.000  0.007
   20  0.010  0.000  0.000  0.000  0.000  0.000  0.000  0.000  0.000  0.010
   21  0.040  0.000  0.000  0.000  0.000  0.000  0.000  0.000  0.000  0.040
   22  0.058  0.000  0.000  0.000  0.000  0.000  0.000  0.000  0.000  0.058
   23  0.051  0.000  0.000  0.000  0.000  0.000  0.000  0.000  0.000  0.051
   24  0.030  0.000  0.000  0.000  0.000  0.000  0.000  0.000  0.000  0.030
   25  0.027  0.000  0.000  0.000  0.000  0.000  0.000  0.000  0.000  0.027
   26  0.008  0.000  0.000  0.000  0.000  0.000  0.000  0.000  0.000  0.008
   27  0.005  0.000  0.000  0.000  0.000  0.000  0.000  0.000  0.000  0.005
   28  0.008  0.000  0.000  0.000  0.000  0.000  0.000  0.000  0.000  0.008
   29  0.032  0.000  0.000  0.000  0.000  0.000  0.000  0.000  0.000  0.032
   30  0.001  0.000  0.000  0.000  0.000  0.000  0.000  0.000  0.000  0.001
   31  0.016  0.000  0.000  0.000  0.000  0.000  0.000  0.000  0.000  0.016
tot    0.346  0.012  0.011  0.011  0.104  0.053  0.153  0.052  0.118  0.860

band    12 # energy  -10.45916006 # occ.  1.00000000

ion      s     py     pz     px    dxy    dyz    dz2    dxz  x2-y2    tot
    1  0.001  0.001  0.000  0.000  0.004  0.008  0.007  0.002  0.014  0.038
    2  0.002  0.000  0.004  0.002  0.015  0.000  0.055  0.007  0.001  0.086
    3  0.001  0.001  0.001  0.000  0.001  0.005  0.006  0.000  0.003  0.016
    4  0.000  0.000  0.000  0.001  0.005  0.002  0.001  0.004  0.002  0.016
    5  0.000  0.001  0.001  0.000  0.002  0.006  0.009  0.001  0.013  0.034
    6  0.000  0.001  0.000  0.003  0.021  0.004  0.001  0.014  0.004  0.047
    7  0.001  0.000  0.000  0.000  0.003  0.001  0.000  0.003  0.002  0.011
    8  0.000  0.000  0.000  0.000  0.001  0.000  0.007  0.001  0.004  0.013
    9  0.004  0.001  0.002  0.002  0.016  0.006  0.025  0.009  0.012  0.075
   10  0.001  0.003  0.001  0.001  0.006  0.011  0.008  0.001  0.024  0.055
   11  0.000  0.000  0.000  0.000  0.001  0.001  0.007  0.000  0.001  0.010
   12  0.001  0.000  0.000  0.001  0.007  0.000  0.007  0.004  0.000  0.020
   13  0.001  0.001  0.002  0.001  0.012  0.007  0.028  0.007  0.017  0.076
   14  0.003  0.000  0.000  0.000  0.002  0.001  0.001  0.001  0.003  0.011
   15  0.001  0.000  0.000  0.000  0.001  0.003  0.002  0.000  0.006  0.014
   16  0.015  0.000  0.000  0.000  0.000  0.000  0.000  0.000  0.000  0.015
   17  0.015  0.000  0.000  0.000  0.000  0.000  0.000  0.000  0.000  0.015
   18  0.116  0.000  0.000  0.000  0.000  0.000  0.000  0.000  0.000  0.116
   19  0.007  0.000  0.000  0.000  0.000  0.000  0.000  0.000  0.000  0.007
   20  0.002  0.000  0.000  0.000  0.000  0.000  0.000  0.000  0.000  0.002